Program Version,EnergyPlus, Version 9.0.1-bb7ca4f0da, YMD=2019.03.13 17:19
1,5,Environment Title[],Latitude[deg],Longitude[deg],Time Zone[],Elevation[m]
2,8,Day of Simulation[],Month[],Day of Month[],DST Indicator[1=yes 0=no],Hour[],StartMinute[],EndMinute[],DayType
3,5,Cumulative Day of Simulation[],Month[],Day of Month[],DST Indicator[1=yes 0=no],DayType  ! When Daily Meters Requested
4,2,Cumulative Days of Simulation[],Month[]  ! When Monthly Meters Requested
5,1,Cumulative Days of Simulation[] ! When Run Period Meters Requested
6,1,Calendar Year of Simulation[] ! When Annual Meters Requested
70,1,InteriorLights:Electricity [J] !Hourly
222,1,InteriorEquipment:Electricity [J] !Hourly
34,1,Electricity:Facility [J] !Hourly
967,1,ElectricityNet:Facility [J] !Hourly
1206,1,Gas:Facility [J] !Hourly
End of Data Dictionary
1,RUNPERIOD 1,  42.93, -78.73,  -5.00, 215.00
2,1, 1, 1, 0, 1, 0.00,60.00,Holiday
34,10093157.415921549
70,2923570.5965399087
222,2043510.819381642
967,10093157.415921549
1206,0.0
2,1, 1, 1, 0, 2, 0.00,60.00,Holiday
34,10093157.415921549
70,2923570.5965399087
222,2043510.819381642
967,10093157.415921549
1206,0.0
2,1, 1, 1, 0, 3, 0.00,60.00,Holiday
34,10093157.415921549
70,2923570.5965399087
222,2043510.819381642
967,10093157.415921549
1206,0.0
2,1, 1, 1, 0, 4, 0.00,60.00,Holiday
34,10093157.415921549
70,2923570.5965399087
222,2043510.819381642
967,10093157.415921549
1206,0.0
2,1, 1, 1, 0, 5, 0.00,60.00,Holiday
34,10093157.415921549
70,2923570.5965399087
222,2043510.819381642
967,10093157.415921549
1206,0.0
2,1, 1, 1, 0, 6, 0.00,60.00,Holiday
34,10093157.415921549
70,2923570.5965399087
222,2043510.819381642
967,10093157.415921549
1206,0.0
2,1, 1, 1, 0, 7, 0.00,60.00,Holiday
34,11205881.415921549
70,2923570.5965399087
222,2043510.819381642
967,11205881.415921549
1206,0.0
2,1, 1, 1, 0, 8, 0.00,60.00,Holiday
34,10658681.415921549
70,2923570.5965399087
222,2043510.819381642
967,10658681.415921549
1206,0.0
2,1, 1, 1, 0, 9, 0.00,60.00,Holiday
34,7908903.136695775
70,2909792.317314135
222,2043510.819381642
967,7908903.136695775
1206,0.0
2,1, 1, 1, 0,10, 0.00,60.00,Holiday
34,7747580.943629692
70,2748470.124248052
222,2043510.819381642
967,7747580.943629692
1206,0.0
2,1, 1, 1, 0,11, 0.00,60.00,Holiday
34,7657973.310248899
70,2658862.4908672596
222,2043510.819381642
967,7657973.3102489
1206,0.0
2,1, 1, 1, 0,12, 0.00,60.00,Holiday
34,7570875.639978119
70,2571764.820596478
222,2043510.819381642
967,7570875.639978119
1206,0.0
2,1, 1, 1, 0,13, 0.00,60.00,Holiday
34,7516437.577945156
70,2517326.758563516
222,2043510.819381642
967,7516437.577945156
1206,0.0
2,1, 1, 1, 0,14, 0.00,60.00,Holiday
34,7573052.988077888
70,2573942.1686962477
222,2043510.819381642
967,7573052.988077888
1206,0.0
2,1, 1, 1, 0,15, 0.00,60.00,Holiday
34,7660150.65834867
70,2661039.8389670297
222,2043510.819381642
967,7660150.65834867
1206,0.0
2,1, 1, 1, 0,16, 0.00,60.00,Holiday
34,7806163.039545862
70,2807052.2201642219
222,2043510.819381642
967,7806163.039545861
1206,0.0
2,1, 1, 1, 0,17, 0.00,60.00,Holiday
34,9017081.415921549
70,2923570.5965399087
222,2043510.819381642
967,9017081.415921549
1206,0.0
2,1, 1, 1, 0,18, 0.00,60.00,Holiday
34,11205881.415921549
70,2923570.5965399087
222,2043510.819381642
967,11205881.415921549
1206,0.0
2,1, 1, 1, 0,19, 0.00,60.00,Holiday
34,11205881.415921549
70,2923570.5965399087
222,2043510.819381642
967,11205881.415921549
1206,0.0
2,1, 1, 1, 0,20, 0.00,60.00,Holiday
34,11205881.415921549
70,2923570.5965399087
222,2043510.819381642
967,11205881.415921549
1206,0.0
2,1, 1, 1, 0,21, 0.00,60.00,Holiday
34,11205881.415921549
70,2923570.5965399087
222,2043510.819381642
967,11205881.415921549
1206,0.0
2,1, 1, 1, 0,22, 0.00,60.00,Holiday
34,11205881.415921549
70,2923570.5965399087
222,2043510.819381642
967,11205881.415921549
1206,0.0
2,1, 1, 1, 0,23, 0.00,60.00,Holiday
34,11205881.415921549
70,2923570.5965399087
222,2043510.819381642
967,11205881.415921549
1206,0.0
2,1, 1, 1, 0,24, 0.00,60.00,Holiday
34,11205881.415921549
70,2923570.5965399087
222,2043510.819381642
967,11205881.415921549
1206,0.0
2,2, 1, 2, 0, 1, 0.00,60.00,Monday
34,13158423.644994012
70,2923570.5965399087
222,5108777.048454104
967,13158423.64499401
1206,0.0
2,2, 1, 2, 0, 2, 0.00,60.00,Monday
34,13158423.644994012
70,2923570.5965399087
222,5108777.048454104
967,13158423.64499401
1206,0.0
2,2, 1, 2, 0, 3, 0.00,60.00,Monday
34,13158423.644994012
70,2923570.5965399087
222,5108777.048454104
967,13158423.64499401
1206,0.0
2,2, 1, 2, 0, 4, 0.00,60.00,Monday
34,13158423.644994012
70,2923570.5965399087
222,5108777.048454104
967,13158423.64499401
1206,0.0
2,2, 1, 2, 0, 5, 0.00,60.00,Monday
34,13158423.644994012
70,2923570.5965399087
222,5108777.048454104
967,13158423.64499401
1206,0.0
2,2, 1, 2, 0, 6, 0.00,60.00,Monday
34,13970526.588477325
70,3735673.540023218
222,5108777.048454104
967,13970526.588477325
1206,0.0
2,2, 1, 2, 0, 7, 0.00,60.00,Monday
34,40810823.61614805
70,2901503.2420463429
222,5985552.087175781
967,40810823.61614805
1206,11194536.270980483
2,2, 1, 2, 0, 8, 0.00,60.00,Monday
34,45436204.51389648
70,5298397.224606365
222,5985552.087175781
967,45436204.51389648
1206,11036063.617442519
2,2, 1, 2, 0, 9, 0.00,60.00,Monday
34,45710694.2585703
70,11300200.287731827
222,11971104.174351562
967,45710694.258570309
1206,0.0
2,2, 1, 2, 0,10, 0.00,60.00,Monday
34,41985957.96190311
70,10673704.341043244
222,11971104.174351562
967,41985957.96190311
1206,0.0
2,2, 1, 2, 0,11, 0.00,60.00,Monday
34,39135867.63991825
70,10064813.556974626
222,11971104.174351562
967,39135867.639918249
1206,0.0
2,2, 1, 2, 0,12, 0.00,60.00,Monday
34,36795777.198528829
70,9805871.335966545
222,11971104.174351562
967,36795777.198528829
1206,0.0
2,2, 1, 2, 0,13, 0.00,60.00,Monday
34,39019584.28204643
70,8823539.994685434
222,11252837.923890466
967,39019584.28204642
1206,0.0
2,2, 1, 2, 0,14, 0.00,60.00,Monday
34,34920349.65743142
70,9931926.684141539
222,11971104.174351562
967,34920349.65743142
1206,0.0
2,2, 1, 2, 0,15, 0.00,60.00,Monday
34,35005559.75407701
70,10390184.252307164
222,11971104.174351562
967,35005559.754077
1206,0.0
2,2, 1, 2, 0,16, 0.00,60.00,Monday
34,35679790.37951073
70,11108789.3058493
222,11971104.174351562
967,35679790.37951073
1206,0.0
2,2, 1, 2, 0,17, 0.00,60.00,Monday
34,37241189.744217898
70,11353708.338442214
222,11971104.174351562
967,37241189.744217898
1206,0.0
2,2, 1, 2, 0,18, 0.00,60.00,Monday
34,39478251.87002783
70,7695291.207166387
222,5985552.087175781
967,39478251.87002783
1206,75308.43895418456
2,2, 1, 2, 0,19, 0.00,60.00,Monday
34,34485196.39548977
70,5298397.224606365
222,2394220.834870312
967,34485196.39548977
1206,0.0
2,2, 1, 2, 0,20, 0.00,60.00,Monday
34,13931418.059538957
70,5298397.224606365
222,2394220.834870312
967,13931418.059538952
1206,0.0
2,2, 1, 2, 0,21, 0.00,60.00,Monday
34,12669894.910823152
70,4036874.0758905645
222,2394220.834870312
967,12669894.910823152
1206,0.0
2,2, 1, 2, 0,22, 0.00,60.00,Monday
34,12669894.910823152
70,4036874.0758905645
222,2394220.834870312
967,12669894.910823152
1206,0.0
2,2, 1, 2, 0,23, 0.00,60.00,Monday
34,11534524.076916654
70,2901503.2420463429
222,2394220.834870312
967,11534524.076916654
1206,0.0
2,2, 1, 2, 0,24, 0.00,60.00,Monday
34,11205881.415921549
70,2923570.5965399087
222,2043510.819381642
967,11205881.415921549
1206,0.0
2,3, 1, 3, 0, 1, 0.00,60.00,Tuesday
34,13158423.644994012
70,2923570.5965399087
222,5108777.048454104
967,13158423.64499401
1206,0.0
2,3, 1, 3, 0, 2, 0.00,60.00,Tuesday
34,13158423.644994012
70,2923570.5965399087
222,5108777.048454104
967,13158423.64499401
1206,0.0
2,3, 1, 3, 0, 3, 0.00,60.00,Tuesday
34,13158423.644994012
70,2923570.5965399087
222,5108777.048454104
967,13158423.64499401
1206,0.0
2,3, 1, 3, 0, 4, 0.00,60.00,Tuesday
34,13158423.644994012
70,2923570.5965399087
222,5108777.048454104
967,13158423.64499401
1206,0.0
2,3, 1, 3, 0, 5, 0.00,60.00,Tuesday
34,13158423.644994012
70,2923570.5965399087
222,5108777.048454104
967,13158423.64499401
1206,0.0
2,3, 1, 3, 0, 6, 0.00,60.00,Tuesday
34,13970526.588477325
70,3735673.540023218
222,5108777.048454104
967,13970526.588477325
1206,0.0
2,3, 1, 3, 0, 7, 0.00,60.00,Tuesday
34,36490444.533590707
70,2901503.2420463429
222,5985552.087175781
967,36490444.533590707
1206,8147040.786782293
2,3, 1, 3, 0, 8, 0.00,60.00,Tuesday
34,42510890.27458543
70,5298397.224606365
222,5985552.087175781
967,42510890.27458544
1206,12831990.549547598
2,3, 1, 3, 0, 9, 0.00,60.00,Tuesday
34,44913316.78942655
70,11246692.237021439
222,11971104.174351562
967,44913316.78942655
1206,0.0
2,3, 1, 3, 0,10, 0.00,60.00,Tuesday
34,42823280.31066691
70,10593537.334419273
222,11971104.174351562
967,42823280.310666907
1206,0.0
2,3, 1, 3, 0,11, 0.00,60.00,Tuesday
34,40544669.16340037
70,10033926.727223259
222,11971104.174351562
967,40544669.16340037
1206,0.0
2,3, 1, 3, 0,12, 0.00,60.00,Tuesday
34,38700204.143357459
70,9783440.253890744
222,11971104.174351562
967,38700204.14335745
1206,0.0
2,3, 1, 3, 0,13, 0.00,60.00,Tuesday
34,40522891.78400218
70,8638804.47718477
222,11252837.923890466
967,40522891.78400217
1206,2747642.3466161417
2,3, 1, 3, 0,14, 0.00,60.00,Tuesday
34,37631181.22340277
70,9854961.37395593
222,11971104.174351562
967,37631181.22340276
1206,0.0
2,3, 1, 3, 0,15, 0.00,60.00,Tuesday
34,37684544.66057862
70,10066580.064860385
222,11971104.174351562
967,37684544.66057862
1206,0.0
2,3, 1, 3, 0,16, 0.00,60.00,Tuesday
34,39315894.86851253
70,11131410.52680832
222,11971104.174351562
967,39315894.868512529
1206,0.0
2,3, 1, 3, 0,17, 0.00,60.00,Tuesday
34,41298155.83798027
70,11353708.338442214
222,11971104.174351562
967,41298155.83798027
1206,0.0
2,3, 1, 3, 0,18, 0.00,60.00,Tuesday
34,41510810.049717139
70,7695291.207166387
222,5985552.087175781
967,41510810.04971712
1206,8617397.019337956
2,3, 1, 3, 0,19, 0.00,60.00,Tuesday
34,37811037.35741423
70,5298397.224606365
222,2394220.834870312
967,37811037.35741422
1206,1309805.0508129667
2,3, 1, 3, 0,20, 0.00,60.00,Tuesday
34,13931418.059538957
70,5298397.224606365
222,2394220.834870312
967,13931418.059538952
1206,0.0
2,3, 1, 3, 0,21, 0.00,60.00,Tuesday
34,12669894.910823152
70,4036874.0758905645
222,2394220.834870312
967,12669894.910823152
1206,0.0
2,3, 1, 3, 0,22, 0.00,60.00,Tuesday
34,12669894.910823152
70,4036874.0758905645
222,2394220.834870312
967,12669894.910823152
1206,0.0
2,3, 1, 3, 0,23, 0.00,60.00,Tuesday
34,11534524.076916654
70,2901503.2420463429
222,2394220.834870312
967,11534524.076916654
1206,0.0
2,3, 1, 3, 0,24, 0.00,60.00,Tuesday
34,11205881.415921549
70,2923570.5965399087
222,2043510.819381642
967,11205881.415921549
1206,0.0
2,4, 1, 4, 0, 1, 0.00,60.00,Wednesday
34,13158423.644994012
70,2923570.5965399087
222,5108777.048454104
967,13158423.64499401
1206,0.0
2,4, 1, 4, 0, 2, 0.00,60.00,Wednesday
34,13158423.644994012
70,2923570.5965399087
222,5108777.048454104
967,13158423.64499401
1206,0.0
2,4, 1, 4, 0, 3, 0.00,60.00,Wednesday
34,13158423.644994012
70,2923570.5965399087
222,5108777.048454104
967,13158423.64499401
1206,0.0
2,4, 1, 4, 0, 4, 0.00,60.00,Wednesday
34,13158423.644994012
70,2923570.5965399087
222,5108777.048454104
967,13158423.64499401
1206,0.0
2,4, 1, 4, 0, 5, 0.00,60.00,Wednesday
34,13158423.644994012
70,2923570.5965399087
222,5108777.048454104
967,13158423.64499401
1206,0.0
2,4, 1, 4, 0, 6, 0.00,60.00,Wednesday
34,13970526.588477325
70,3735673.540023218
222,5108777.048454104
967,13970526.588477325
1206,0.0
2,4, 1, 4, 0, 7, 0.00,60.00,Wednesday
34,20775233.91331027
70,2901503.2420463429
222,5985552.087175781
967,20775233.913310276
1206,62480519.204780939
2,4, 1, 4, 0, 8, 0.00,60.00,Wednesday
34,22624927.895932579
70,5298397.224606365
222,5985552.087175781
967,22624927.89593257
1206,81459668.34482327
2,4, 1, 4, 0, 9, 0.00,60.00,Wednesday
34,31107515.11408537
70,10531432.35558338
222,11971104.174351562
967,31107515.114085366
1206,50015337.20452636
2,4, 1, 4, 0,10, 0.00,60.00,Wednesday
34,44761094.48493675
70,10088869.966486246
222,11971104.174351562
967,44761094.484936747
1206,1507956.1646649596
2,4, 1, 4, 0,11, 0.00,60.00,Wednesday
34,38715893.49951686
70,9925553.129069904
222,11971104.174351562
967,38715893.49951687
1206,0.0
2,4, 1, 4, 0,12, 0.00,60.00,Wednesday
34,36216977.69738792
70,9823286.359703292
222,11971104.174351562
967,36216977.69738792
1206,0.0
2,4, 1, 4, 0,13, 0.00,60.00,Wednesday
34,38289116.418672177
70,8638804.47718477
222,11252837.923890466
967,38289116.41867217
1206,0.0
2,4, 1, 4, 0,14, 0.00,60.00,Wednesday
34,34866282.77049343
70,9815762.272194714
222,11971104.174351562
967,34866282.77049343
1206,0.0
2,4, 1, 4, 0,15, 0.00,60.00,Wednesday
34,34393357.13291999
70,9928061.15823943
222,11971104.174351562
967,34393357.13291998
1206,0.0
2,4, 1, 4, 0,16, 0.00,60.00,Wednesday
34,35652146.09932467
70,10273041.516975847
222,11971104.174351562
967,35652146.099324669
1206,0.0
2,4, 1, 4, 0,17, 0.00,60.00,Wednesday
34,39738802.4591824
70,11297692.2585623
222,11971104.174351562
967,39738802.4591824
1206,0.0
2,4, 1, 4, 0,18, 0.00,60.00,Wednesday
34,40688961.51727122
70,7695291.207166387
222,5985552.087175781
967,40688961.51727122
1206,5691902.757188664
2,4, 1, 4, 0,19, 0.00,60.00,Wednesday
34,36006831.18314431
70,5298397.224606365
222,2394220.834870312
967,36006831.1831443
1206,1334692.6198897649
2,4, 1, 4, 0,20, 0.00,60.00,Wednesday
34,13931418.059538957
70,5298397.224606365
222,2394220.834870312
967,13931418.059538952
1206,0.0
2,4, 1, 4, 0,21, 0.00,60.00,Wednesday
34,12669894.910823152
70,4036874.0758905645
222,2394220.834870312
967,12669894.910823152
1206,0.0
2,4, 1, 4, 0,22, 0.00,60.00,Wednesday
34,12669894.910823152
70,4036874.0758905645
222,2394220.834870312
967,12669894.910823152
1206,0.0
2,4, 1, 4, 0,23, 0.00,60.00,Wednesday
34,11534524.076916654
70,2901503.2420463429
222,2394220.834870312
967,11534524.076916654
1206,0.0
2,4, 1, 4, 0,24, 0.00,60.00,Wednesday
34,11205881.415921549
70,2923570.5965399087
222,2043510.819381642
967,11205881.415921549
1206,0.0
2,5, 1, 5, 0, 1, 0.00,60.00,Thursday
34,13158423.644994012
70,2923570.5965399087
222,5108777.048454104
967,13158423.64499401
1206,0.0
2,5, 1, 5, 0, 2, 0.00,60.00,Thursday
34,13158423.644994012
70,2923570.5965399087
222,5108777.048454104
967,13158423.64499401
1206,0.0
2,5, 1, 5, 0, 3, 0.00,60.00,Thursday
34,13158423.644994012
70,2923570.5965399087
222,5108777.048454104
967,13158423.64499401
1206,0.0
2,5, 1, 5, 0, 4, 0.00,60.00,Thursday
34,13158423.644994012
70,2923570.5965399087
222,5108777.048454104
967,13158423.64499401
1206,0.0
2,5, 1, 5, 0, 5, 0.00,60.00,Thursday
34,13158423.644994012
70,2923570.5965399087
222,5108777.048454104
967,13158423.64499401
1206,0.0
2,5, 1, 5, 0, 6, 0.00,60.00,Thursday
34,13970526.588477325
70,3735673.540023218
222,5108777.048454104
967,13970526.588477325
1206,0.0
2,5, 1, 5, 0, 7, 0.00,60.00,Thursday
34,37688268.25097999
70,2901503.2420463429
222,5985552.087175781
967,37688268.25097998
1206,16877375.358382606
2,5, 1, 5, 0, 8, 0.00,60.00,Thursday
34,42975830.73895062
70,5298397.224606365
222,5985552.087175781
967,42975830.73895062
1206,21298199.111008359
2,5, 1, 5, 0, 9, 0.00,60.00,Thursday
34,46551578.60815463
70,10955648.060776782
222,11971104.174351562
967,46551578.60815463
1206,106581.0703577293
2,5, 1, 5, 0,10, 0.00,60.00,Thursday
34,41730659.69990405
70,9943252.808922308
222,11971104.174351562
967,41730659.69990403
1206,0.0
2,5, 1, 5, 0,11, 0.00,60.00,Thursday
34,37340812.12940053
70,9912081.323055283
222,11971104.174351562
967,37340812.129400517
1206,0.0
2,5, 1, 5, 0,12, 0.00,60.00,Thursday
34,35178716.29197207
70,9803363.306797019
222,11971104.174351562
967,35178716.29197207
1206,0.0
2,5, 1, 5, 0,13, 0.00,60.00,Thursday
34,35287239.40704631
70,8762895.633445979
222,11252837.923890466
967,35287239.40704631
1206,0.0
2,5, 1, 5, 0,14, 0.00,60.00,Thursday
34,33067963.390571454
70,9875531.430913533
222,11971104.174351562
967,33067963.390571447
1206,0.0
2,5, 1, 5, 0,15, 0.00,60.00,Thursday
34,32567009.91226174
70,9920537.07073085
222,11971104.174351562
967,32567009.91226174
1206,0.0
2,5, 1, 5, 0,16, 0.00,60.00,Thursday
34,32835796.236688168
70,10067968.590195483
222,11971104.174351562
967,32835796.236688164
1206,0.0
2,5, 1, 5, 0,17, 0.00,60.00,Thursday
34,35925365.810545098
70,11009156.111487169
222,11971104.174351562
967,35925365.8105451
1206,0.0
2,5, 1, 5, 0,18, 0.00,60.00,Thursday
34,38740765.24179669
70,7695291.207166387
222,5985552.087175781
967,38740765.24179669
1206,2686134.537561944
2,5, 1, 5, 0,19, 0.00,60.00,Thursday
34,35432792.35445548
70,5298397.224606365
222,2394220.834870312
967,35432792.35445548
1206,263540.8399869138
2,5, 1, 5, 0,20, 0.00,60.00,Thursday
34,13931418.059538957
70,5298397.224606365
222,2394220.834870312
967,13931418.059538952
1206,0.0
2,5, 1, 5, 0,21, 0.00,60.00,Thursday
34,12669894.910823152
70,4036874.0758905645
222,2394220.834870312
967,12669894.910823152
1206,0.0
2,5, 1, 5, 0,22, 0.00,60.00,Thursday
34,12669894.910823152
70,4036874.0758905645
222,2394220.834870312
967,12669894.910823152
1206,0.0
2,5, 1, 5, 0,23, 0.00,60.00,Thursday
34,11534524.076916654
70,2901503.2420463429
222,2394220.834870312
967,11534524.076916654
1206,0.0
2,5, 1, 5, 0,24, 0.00,60.00,Thursday
34,11205881.415921549
70,2923570.5965399087
222,2043510.819381642
967,11205881.415921549
1206,0.0
2,6, 1, 6, 0, 1, 0.00,60.00,Friday
34,13158423.644994012
70,2923570.5965399087
222,5108777.048454104
967,13158423.64499401
1206,0.0
2,6, 1, 6, 0, 2, 0.00,60.00,Friday
34,13158423.644994012
70,2923570.5965399087
222,5108777.048454104
967,13158423.64499401
1206,0.0
2,6, 1, 6, 0, 3, 0.00,60.00,Friday
34,13158423.644994012
70,2923570.5965399087
222,5108777.048454104
967,13158423.64499401
1206,0.0
2,6, 1, 6, 0, 4, 0.00,60.00,Friday
34,13158423.644994012
70,2923570.5965399087
222,5108777.048454104
967,13158423.64499401
1206,0.0
2,6, 1, 6, 0, 5, 0.00,60.00,Friday
34,13158423.644994012
70,2923570.5965399087
222,5108777.048454104
967,13158423.64499401
1206,0.0
2,6, 1, 6, 0, 6, 0.00,60.00,Friday
34,13970526.588477325
70,3735673.540023218
222,5108777.048454104
967,13970526.588477325
1206,0.0
2,6, 1, 6, 0, 7, 0.00,60.00,Friday
34,34744576.58235626
70,2901503.2420463429
222,5985552.087175781
967,34744576.58235626
1206,26544655.39791923
2,6, 1, 6, 0, 8, 0.00,60.00,Friday
34,22624927.895932579
70,5298397.224606365
222,5985552.087175781
967,22624927.895932579
1206,79905144.28757721
2,6, 1, 6, 0, 9, 0.00,60.00,Friday
34,42543463.7350299
70,10496127.513111012
222,11971104.174351562
967,42543463.73502989
1206,20637061.103316375
2,6, 1, 6, 0,10, 0.00,60.00,Friday
34,42547089.31700137
70,10055284.968682133
222,11971104.174351562
967,42547089.317001368
1206,363822.6792700482
2,6, 1, 6, 0,11, 0.00,60.00,Friday
34,36870432.129470858
70,9925553.129069904
222,11971104.174351562
967,36870432.129470858
1206,0.0
2,6, 1, 6, 0,12, 0.00,60.00,Friday
34,34798395.23852918
70,9798347.248457965
222,11971104.174351562
967,34798395.238529179
1206,0.0
2,6, 1, 6, 0,13, 0.00,60.00,Friday
34,34774321.13600324
70,8638804.47718477
222,11252837.923890466
967,34774321.136003229
1206,0.0
2,6, 1, 6, 0,14, 0.00,60.00,Friday
34,32703796.459219666
70,9855608.37800726
222,11971104.174351562
967,32703796.459219655
1206,0.0
2,6, 1, 6, 0,15, 0.00,60.00,Friday
34,32011952.893502259
70,9923045.099900376
222,11971104.174351562
967,32011952.89350225
1206,0.0
2,6, 1, 6, 0,16, 0.00,60.00,Friday
34,32172925.04302311
70,10166528.943940688
222,11971104.174351562
967,32172925.04302311
1206,0.0
2,6, 1, 6, 0,17, 0.00,60.00,Friday
34,34641518.61219296
70,11125416.145084778
222,11971104.174351562
967,34641518.61219295
1206,0.0
2,6, 1, 6, 0,18, 0.00,60.00,Friday
34,37053746.52372392
70,7695291.207166387
222,5985552.087175781
967,37053746.523723918
1206,0.0
2,6, 1, 6, 0,19, 0.00,60.00,Friday
34,32259656.098306505
70,5298397.224606365
222,2394220.834870312
967,32259656.098306508
1206,0.0
2,6, 1, 6, 0,20, 0.00,60.00,Friday
34,13931418.059538957
70,5298397.224606365
222,2394220.834870312
967,13931418.059538952
1206,0.0
2,6, 1, 6, 0,21, 0.00,60.00,Friday
34,12669894.910823152
70,4036874.0758905645
222,2394220.834870312
967,12669894.910823152
1206,0.0
2,6, 1, 6, 0,22, 0.00,60.00,Friday
34,12669894.910823152
70,4036874.0758905645
222,2394220.834870312
967,12669894.910823152
1206,0.0
2,6, 1, 6, 0,23, 0.00,60.00,Friday
34,11534524.076916654
70,2901503.2420463429
222,2394220.834870312
967,11534524.076916654
1206,0.0
2,6, 1, 6, 0,24, 0.00,60.00,Friday
34,11205881.415921549
70,2923570.5965399087
222,2043510.819381642
967,11205881.415921549
1206,0.0
2,7, 1, 7, 0, 1, 0.00,60.00,Saturday
34,10093157.415921549
70,2923570.5965399087
222,2043510.819381642
967,10093157.415921549
1206,0.0
2,7, 1, 7, 0, 2, 0.00,60.00,Saturday
34,10093157.415921549
70,2923570.5965399087
222,2043510.819381642
967,10093157.415921549
1206,0.0
2,7, 1, 7, 0, 3, 0.00,60.00,Saturday
34,10093157.415921549
70,2923570.5965399087
222,2043510.819381642
967,10093157.415921549
1206,0.0
2,7, 1, 7, 0, 4, 0.00,60.00,Saturday
34,10093157.415921549
70,2923570.5965399087
222,2043510.819381642
967,10093157.415921549
1206,0.0
2,7, 1, 7, 0, 5, 0.00,60.00,Saturday
34,10093157.415921549
70,2923570.5965399087
222,2043510.819381642
967,10093157.415921549
1206,0.0
2,7, 1, 7, 0, 6, 0.00,60.00,Saturday
34,10093157.415921549
70,2923570.5965399087
222,2043510.819381642
967,10093157.415921549
1206,0.0
2,7, 1, 7, 0, 7, 0.00,60.00,Saturday
34,11205881.415921549
70,2923570.5965399087
222,2043510.819381642
967,11205881.415921549
1206,0.0
2,7, 1, 7, 0, 8, 0.00,60.00,Saturday
34,10658681.415921549
70,2923570.5965399087
222,2043510.819381642
967,10658681.415921549
1206,0.0
2,7, 1, 7, 0, 9, 0.00,60.00,Saturday
34,7880054.947330923
70,2880944.1279492827
222,2043510.819381642
967,7880054.947330922
1206,0.0
2,7, 1, 7, 0,10, 0.00,60.00,Saturday
34,7615322.503548346
70,2616211.684166706
222,2043510.819381642
967,7615322.503548346
1206,0.0
2,7, 1, 7, 0,11, 0.00,60.00,Saturday
34,7541203.300789939
70,2542092.481408298
222,2043510.819381642
967,7541203.300789939
1206,0.0
2,7, 1, 7, 0,12, 0.00,60.00,Saturday
34,7459996.476278549
70,2460885.6568969066
222,2043510.819381642
967,7459996.476278546
1206,0.0
2,7, 1, 7, 0,13, 0.00,60.00,Saturday
34,7469290.401157962
70,2470179.5817763207
222,2043510.819381642
967,7469290.40115796
1206,0.0
2,7, 1, 7, 0,14, 0.00,60.00,Saturday
34,7525406.286637876
70,2526295.467256236
222,2043510.819381642
967,7525406.286637875
1206,0.0
2,7, 1, 7, 0,15, 0.00,60.00,Saturday
34,7605419.117062489
70,2606308.2976808489
222,2043510.819381642
967,7605419.117062489
1206,0.0
2,7, 1, 7, 0,16, 0.00,60.00,Saturday
34,7769312.556214902
70,2770201.7368332606
222,2043510.819381642
967,7769312.556214901
1206,0.0
2,7, 1, 7, 0,17, 0.00,60.00,Saturday
34,8469881.415921549
70,2923570.5965399087
222,2043510.819381642
967,8469881.415921549
1206,0.0
2,7, 1, 7, 0,18, 0.00,60.00,Saturday
34,11205881.415921549
70,2923570.5965399087
222,2043510.819381642
967,11205881.415921549
1206,0.0
2,7, 1, 7, 0,19, 0.00,60.00,Saturday
34,11205881.415921549
70,2923570.5965399087
222,2043510.819381642
967,11205881.415921549
1206,0.0
2,7, 1, 7, 0,20, 0.00,60.00,Saturday
34,11205881.415921549
70,2923570.5965399087
222,2043510.819381642
967,11205881.415921549
1206,0.0
2,7, 1, 7, 0,21, 0.00,60.00,Saturday
34,11205881.415921549
70,2923570.5965399087
222,2043510.819381642
967,11205881.415921549
1206,0.0
2,7, 1, 7, 0,22, 0.00,60.00,Saturday
34,11205881.415921549
70,2923570.5965399087
222,2043510.819381642
967,11205881.415921549
1206,0.0
2,7, 1, 7, 0,23, 0.00,60.00,Saturday
34,11205881.415921549
70,2923570.5965399087
222,2043510.819381642
967,11205881.415921549
1206,0.0
2,7, 1, 7, 0,24, 0.00,60.00,Saturday
34,11205881.415921549
70,2923570.5965399087
222,2043510.819381642
967,11205881.415921549
1206,0.0
2,8, 1, 8, 0, 1, 0.00,60.00,Sunday
34,10093157.415921549
70,2923570.5965399087
222,2043510.819381642
967,10093157.415921549
1206,0.0
2,8, 1, 8, 0, 2, 0.00,60.00,Sunday
34,10093157.415921549
70,2923570.5965399087
222,2043510.819381642
967,10093157.415921549
1206,0.0
2,8, 1, 8, 0, 3, 0.00,60.00,Sunday
34,10093157.415921549
70,2923570.5965399087
222,2043510.819381642
967,10093157.415921549
1206,0.0
2,8, 1, 8, 0, 4, 0.00,60.00,Sunday
34,10093157.415921549
70,2923570.5965399087
222,2043510.819381642
967,10093157.415921549
1206,0.0
2,8, 1, 8, 0, 5, 0.00,60.00,Sunday
34,10093157.415921549
70,2923570.5965399087
222,2043510.819381642
967,10093157.415921549
1206,0.0
2,8, 1, 8, 0, 6, 0.00,60.00,Sunday
34,10093157.415921549
70,2923570.5965399087
222,2043510.819381642
967,10093157.415921549
1206,0.0
2,8, 1, 8, 0, 7, 0.00,60.00,Sunday
34,11398692.984322926
70,2923570.5965399087
222,2043510.819381642
967,11398692.984322926
1206,0.0
2,8, 1, 8, 0, 8, 0.00,60.00,Sunday
34,11447535.581582845
70,2923570.5965399087
222,2043510.819381642
967,11447535.581582845
1206,0.0
2,8, 1, 8, 0, 9, 0.00,60.00,Sunday
34,7903391.18147626
70,2787221.700098762
222,2043510.819381642
967,7903391.18147626
1206,0.0
2,8, 1, 8, 0,10, 0.00,60.00,Sunday
34,7573914.367154425
70,2574803.5477727858
222,2043510.819381642
967,7573914.367154425
1206,0.0
2,8, 1, 8, 0,11, 0.00,60.00,Sunday
34,7550374.96634608
70,2551264.1469644389
222,2043510.819381642
967,7550374.96634608
1206,0.0
2,8, 1, 8, 0,12, 0.00,60.00,Sunday
34,7533729.179873943
70,2534618.360492304
222,2043510.819381642
967,7533729.179873943
1206,0.0
2,8, 1, 8, 0,13, 0.00,60.00,Sunday
34,7480810.634743817
70,2481699.8153621766
222,2043510.819381642
967,7480810.634743816
1206,0.0
2,8, 1, 8, 0,14, 0.00,60.00,Sunday
34,7526661.563700973
70,2527550.7443193329
222,2043510.819381642
967,7526661.563700972
1206,0.0
2,8, 1, 8, 0,15, 0.00,60.00,Sunday
34,7628036.446834164
70,2628925.627452522
222,2043510.819381642
967,7628036.446834163
1206,0.0
2,8, 1, 8, 0,16, 0.00,60.00,Sunday
34,7806163.039545862
70,2807052.2201642219
222,2043510.819381642
967,7806163.039545861
1206,0.0
2,8, 1, 8, 0,17, 0.00,60.00,Sunday
34,8469881.415921549
70,2923570.5965399087
222,2043510.819381642
967,8469881.415921549
1206,0.0
2,8, 1, 8, 0,18, 0.00,60.00,Sunday
34,11205881.415921549
70,2923570.5965399087
222,2043510.819381642
967,11205881.415921549
1206,0.0
2,8, 1, 8, 0,19, 0.00,60.00,Sunday
34,11205881.415921549
70,2923570.5965399087
222,2043510.819381642
967,11205881.415921549
1206,0.0
2,8, 1, 8, 0,20, 0.00,60.00,Sunday
34,11205881.415921549
70,2923570.5965399087
222,2043510.819381642
967,11205881.415921549
1206,0.0
2,8, 1, 8, 0,21, 0.00,60.00,Sunday
34,11205881.415921549
70,2923570.5965399087
222,2043510.819381642
967,11205881.415921549
1206,0.0
2,8, 1, 8, 0,22, 0.00,60.00,Sunday
34,11205881.415921549
70,2923570.5965399087
222,2043510.819381642
967,11205881.415921549
1206,0.0
2,8, 1, 8, 0,23, 0.00,60.00,Sunday
34,11205881.415921549
70,2923570.5965399087
222,2043510.819381642
967,11205881.415921549
1206,0.0
2,8, 1, 8, 0,24, 0.00,60.00,Sunday
34,11523703.964834208
70,2923570.5965399087
222,2043510.819381642
967,11523703.964834208
1206,0.0
2,9, 1, 9, 0, 1, 0.00,60.00,Monday
34,13158423.644994012
70,2923570.5965399087
222,5108777.048454104
967,13158423.64499401
1206,0.0
2,9, 1, 9, 0, 2, 0.00,60.00,Monday
34,14121803.992167376
70,2923570.5965399087
222,5108777.048454104
967,14121803.992167373
1206,0.0
2,9, 1, 9, 0, 3, 0.00,60.00,Monday
34,13906263.172289445
70,2923570.5965399087
222,5108777.048454104
967,13906263.172289445
1206,0.0
2,9, 1, 9, 0, 4, 0.00,60.00,Monday
34,13158423.644994012
70,2923570.5965399087
222,5108777.048454104
967,13158423.64499401
1206,0.0
2,9, 1, 9, 0, 5, 0.00,60.00,Monday
34,13158423.644994012
70,2923570.5965399087
222,5108777.048454104
967,13158423.64499401
1206,0.0
2,9, 1, 9, 0, 6, 0.00,60.00,Monday
34,13970526.588477325
70,3735673.540023218
222,5108777.048454104
967,13970526.588477325
1206,0.0
2,9, 1, 9, 0, 7, 0.00,60.00,Monday
34,39716872.99735153
70,2901503.2420463429
222,5985552.087175781
967,39716872.99735153
1206,42561614.577494937
2,9, 1, 9, 0, 8, 0.00,60.00,Monday
34,43580346.32772513
70,5298397.224606365
222,5985552.087175781
967,43580346.32772513
1206,46731167.751804288
2,9, 1, 9, 0, 9, 0.00,60.00,Monday
34,51088288.90493287
70,11159789.32739016
222,11971104.174351562
967,51088288.904932867
1206,8392813.590455063
2,9, 1, 9, 0,10, 0.00,60.00,Monday
34,48911793.999969828
70,10392692.281476692
222,11971104.174351562
967,48911793.99996981
1206,2913562.640815654
2,9, 1, 9, 0,11, 0.00,60.00,Monday
34,46240384.75072838
70,9862628.937130224
222,11971104.174351562
967,46240384.750728379
1206,189084.04035574373
2,9, 1, 9, 0,12, 0.00,60.00,Monday
34,43562245.70151841
70,9805871.335966545
222,11971104.174351562
967,43562245.7015184
1206,0.0
2,9, 1, 9, 0,13, 0.00,60.00,Monday
34,44118790.81429963
70,8796085.034906442
222,11252837.923890466
967,44118790.81429963
1206,5348530.400355806
2,9, 1, 9, 0,14, 0.00,60.00,Monday
34,39901186.31902119
70,9769778.308992906
222,11971104.174351562
967,39901186.31902119
1206,0.0
2,9, 1, 9, 0,15, 0.00,60.00,Monday
34,38044539.50995332
70,9905630.076163631
222,11971104.174351562
967,38044539.50995331
1206,0.0
2,9, 1, 9, 0,16, 0.00,60.00,Monday
34,38989911.92824046
70,10490464.450720627
222,11971104.174351562
967,38989911.92824045
1206,0.0
2,9, 1, 9, 0,17, 0.00,60.00,Monday
34,41411124.57945853
70,11353708.338442214
222,11971104.174351562
967,41411124.57945852
1206,0.0
2,9, 1, 9, 0,18, 0.00,60.00,Monday
34,41488926.57235782
70,7695291.207166387
222,5985552.087175781
967,41488926.57235782
1206,8070393.303390802
2,9, 1, 9, 0,19, 0.00,60.00,Monday
34,37275752.035325679
70,5298397.224606365
222,2394220.834870312
967,37275752.03532568
1206,1871884.5980513748
2,9, 1, 9, 0,20, 0.00,60.00,Monday
34,13931418.059538957
70,5298397.224606365
222,2394220.834870312
967,13931418.059538952
1206,0.0
2,9, 1, 9, 0,21, 0.00,60.00,Monday
34,12669894.910823152
70,4036874.0758905645
222,2394220.834870312
967,12669894.910823152
1206,0.0
2,9, 1, 9, 0,22, 0.00,60.00,Monday
34,12669894.910823152
70,4036874.0758905645
222,2394220.834870312
967,12669894.910823152
1206,0.0
2,9, 1, 9, 0,23, 0.00,60.00,Monday
34,11534524.076916654
70,2901503.2420463429
222,2394220.834870312
967,11534524.076916654
1206,0.0
2,9, 1, 9, 0,24, 0.00,60.00,Monday
34,11205881.415921549
70,2923570.5965399087
222,2043510.819381642