Program Version,EnergyPlus, Version 9.0.1-bb7ca4f0da, YMD=2019.03.13 17:19
1,5,Environment Title[],Latitude[deg],Longitude[deg],Time Zone[],Elevation[m]
2,8,Day of Simulation[],Month[],Day of Month[],DST Indicator[1=yes 0=no],Hour[],StartMinute[],EndMinute[],DayType
3,5,Cumulative Day of Simulation[],Month[],Day of Month[],DST Indicator[1=yes 0=no],DayType  ! When Daily Meters Requested
4,2,Cumulative Days of Simulation[],Month[]  ! When Monthly Meters Requested
5,1,Cumulative Days of Simulation[] ! When Run Period Meters Requested
6,1,Calendar Year of Simulation[] ! When Annual Meters Requested
70,1,InteriorLights:Electricity [J] !Hourly
222,1,InteriorEquipment:Electricity [J] !Hourly
34,1,Electricity:Facility [J] !Hourly
967,1,ElectricityNet:Facility [J] !Hourly
1206,1,Gas:Facility [J] !Hourly
End of Data Dictionary
1,RUNPERIOD 1,  43.90, -92.50,  -6.00, 398.00
2,1, 1, 1, 0, 1, 0.00,60.00,Holiday
34,10093157.415921549
70,2923570.5965399087
222,2043510.819381642
967,10093157.415921549
1206,0.0
2,1, 1, 1, 0, 2, 0.00,60.00,Holiday
34,10093157.415921549
70,2923570.5965399087
222,2043510.819381642
967,10093157.415921549
1206,0.0
2,1, 1, 1, 0, 3, 0.00,60.00,Holiday
34,10093157.415921549
70,2923570.5965399087
222,2043510.819381642
967,10093157.415921549
1206,0.0
2,1, 1, 1, 0, 4, 0.00,60.00,Holiday
34,10093157.415921549
70,2923570.5965399087
222,2043510.819381642
967,10093157.415921549
1206,0.0
2,1, 1, 1, 0, 5, 0.00,60.00,Holiday
34,10093157.415921549
70,2923570.5965399087
222,2043510.819381642
967,10093157.415921549
1206,0.0
2,1, 1, 1, 0, 6, 0.00,60.00,Holiday
34,10093157.415921549
70,2923570.5965399087
222,2043510.819381642
967,10093157.415921549
1206,0.0
2,1, 1, 1, 0, 7, 0.00,60.00,Holiday
34,11205881.415921549
70,2923570.5965399087
222,2043510.819381642
967,11205881.415921549
1206,0.0
2,1, 1, 1, 0, 8, 0.00,60.00,Holiday
34,10658681.415921549
70,2923570.5965399087
222,2043510.819381642
967,10658681.415921549
1206,0.0
2,1, 1, 1, 0, 9, 0.00,60.00,Holiday
34,7922681.415921549
70,2923570.5965399087
222,2043510.819381642
967,7922681.415921549
1206,0.0
2,1, 1, 1, 0,10, 0.00,60.00,Holiday
34,7780962.447947578
70,2781851.6285659379
222,2043510.819381642
967,7780962.447947578
1206,0.0
2,1, 1, 1, 0,11, 0.00,60.00,Holiday
34,7502008.866345997
70,2502898.0469643559
222,2043510.819381642
967,7502008.866345996
1206,0.0
2,1, 1, 1, 0,12, 0.00,60.00,Holiday
34,7512070.866005335
70,2512960.0466236949
222,2043510.819381642
967,7512070.866005335
1206,0.0
2,1, 1, 1, 0,13, 0.00,60.00,Holiday
34,7660471.25761863
70,2661360.438236989
222,2043510.819381642
967,7660471.257618629
1206,0.0
2,1, 1, 1, 0,14, 0.00,60.00,Holiday
34,7758166.499422412
70,2759055.680040771
222,2043510.819381642
967,7758166.4994224109
1206,0.0
2,1, 1, 1, 0,15, 0.00,60.00,Holiday
34,7846482.5018898979
70,2847371.6825082579
222,2043510.819381642
967,7846482.5018898979
1206,0.0
2,1, 1, 1, 0,16, 0.00,60.00,Holiday
34,7922681.415921549
70,2923570.5965399087
222,2043510.819381642
967,7922681.415921549
1206,0.0
2,1, 1, 1, 0,17, 0.00,60.00,Holiday
34,9564281.415921549
70,2923570.5965399087
222,2043510.819381642
967,9564281.415921549
1206,0.0
2,1, 1, 1, 0,18, 0.00,60.00,Holiday
34,11205881.415921549
70,2923570.5965399087
222,2043510.819381642
967,11205881.415921549
1206,0.0
2,1, 1, 1, 0,19, 0.00,60.00,Holiday
34,11205881.415921549
70,2923570.5965399087
222,2043510.819381642
967,11205881.415921549
1206,0.0
2,1, 1, 1, 0,20, 0.00,60.00,Holiday
34,11205881.415921549
70,2923570.5965399087
222,2043510.819381642
967,11205881.415921549
1206,0.0
2,1, 1, 1, 0,21, 0.00,60.00,Holiday
34,11205881.415921549
70,2923570.5965399087
222,2043510.819381642
967,11205881.415921549
1206,0.0
2,1, 1, 1, 0,22, 0.00,60.00,Holiday
34,11205881.415921549
70,2923570.5965399087
222,2043510.819381642
967,11205881.415921549
1206,0.0
2,1, 1, 1, 0,23, 0.00,60.00,Holiday
34,11205881.415921549
70,2923570.5965399087
222,2043510.819381642
967,11205881.415921549
1206,0.0
2,1, 1, 1, 0,24, 0.00,60.00,Holiday
34,11205881.415921549
70,2923570.5965399087
222,2043510.819381642
967,11205881.415921549
1206,0.0
2,2, 1, 2, 0, 1, 0.00,60.00,Monday
34,13158423.644994012
70,2923570.5965399087
222,5108777.048454104
967,13158423.64499401
1206,0.0
2,2, 1, 2, 0, 2, 0.00,60.00,Monday
34,13158423.644994012
70,2923570.5965399087
222,5108777.048454104
967,13158423.64499401
1206,0.0
2,2, 1, 2, 0, 3, 0.00,60.00,Monday
34,13158423.644994012
70,2923570.5965399087
222,5108777.048454104
967,13158423.64499401
1206,0.0
2,2, 1, 2, 0, 4, 0.00,60.00,Monday
34,13158423.644994012
70,2923570.5965399087
222,5108777.048454104
967,13158423.64499401
1206,0.0
2,2, 1, 2, 0, 5, 0.00,60.00,Monday
34,13158423.644994012
70,2923570.5965399087
222,5108777.048454104
967,13158423.64499401
1206,0.0
2,2, 1, 2, 0, 6, 0.00,60.00,Monday
34,13970526.588477325
70,3735673.540023218
222,5108777.048454104
967,13970526.588477325
1206,0.0
2,2, 1, 2, 0, 7, 0.00,60.00,Monday
34,43672970.73877346
70,2901503.2420463429
222,5985552.087175781
967,43672970.738773468
1206,26110572.58011715
2,2, 1, 2, 0, 8, 0.00,60.00,Monday
34,48366596.00710201
70,5298397.224606365
222,5985552.087175781
967,48366596.007102
1206,26447350.755192903
2,2, 1, 2, 0, 9, 0.00,60.00,Monday
34,51859267.463800359
70,10694749.192999723
222,11971104.174351562
967,51859267.46380036
1206,2884081.11214758
2,2, 1, 2, 0,10, 0.00,60.00,Monday
34,46727616.686940159
70,9921325.25523212
222,11971104.174351562
967,46727616.68694016
1206,988213.1406616201
2,2, 1, 2, 0,11, 0.00,60.00,Monday
34,41959518.635990459
70,9914589.352224812
222,11971104.174351562
967,41959518.635990459
1206,89777.674835103
2,2, 1, 2, 0,12, 0.00,60.00,Monday
34,40177007.67944618
70,9825794.388872819
222,11971104.174351562
967,40177007.67944618
1206,0.0
2,2, 1, 2, 0,13, 0.00,60.00,Monday
34,42409595.03565447
70,8886861.295973905
222,11252837.923890466
967,42409595.03565447
1206,33078.603531147994
2,2, 1, 2, 0,14, 0.00,60.00,Monday
34,38273826.45091117
70,9958016.32782381
222,11971104.174351562
967,38273826.45091118
1206,0.0
2,2, 1, 2, 0,15, 0.00,60.00,Monday
34,36472742.99773413
70,10035361.91577586
222,11971104.174351562
967,36472742.99773413
1206,0.0
2,2, 1, 2, 0,16, 0.00,60.00,Monday
34,36648281.16474153
70,10277772.919199245
222,11971104.174351562
967,36648281.16474152
1206,0.0
2,2, 1, 2, 0,17, 0.00,60.00,Monday
34,40964059.54155794
70,11105493.092178505
222,11971104.174351562
967,40964059.54155795
1206,0.0
2,2, 1, 2, 0,18, 0.00,60.00,Monday
34,43832375.455290589
70,7695291.207166387
222,5985552.087175781
967,43832375.455290589
1206,11117585.389046289
2,2, 1, 2, 0,19, 0.00,60.00,Monday
34,23233432.637297933
70,5298397.224606365
222,2394220.834870312
967,23233432.63729793
1206,43892277.99046916
2,2, 1, 2, 0,20, 0.00,60.00,Monday
34,13931418.059538957
70,5298397.224606365
222,2394220.834870312
967,13931418.059538952
1206,0.0
2,2, 1, 2, 0,21, 0.00,60.00,Monday
34,12669894.910823152
70,4036874.0758905645
222,2394220.834870312
967,12669894.910823152
1206,0.0
2,2, 1, 2, 0,22, 0.00,60.00,Monday
34,12669894.910823152
70,4036874.0758905645
222,2394220.834870312
967,12669894.910823152
1206,0.0
2,2, 1, 2, 0,23, 0.00,60.00,Monday
34,11534524.076916654
70,2901503.2420463429
222,2394220.834870312
967,11534524.076916654
1206,0.0
2,2, 1, 2, 0,24, 0.00,60.00,Monday
34,11205881.415921549
70,2923570.5965399087
222,2043510.819381642
967,11205881.415921549
1206,0.0
2,3, 1, 3, 0, 1, 0.00,60.00,Tuesday
34,13158423.644994012
70,2923570.5965399087
222,5108777.048454104
967,13158423.64499401
1206,0.0
2,3, 1, 3, 0, 2, 0.00,60.00,Tuesday
34,13158423.644994012
70,2923570.5965399087
222,5108777.048454104
967,13158423.64499401
1206,0.0
2,3, 1, 3, 0, 3, 0.00,60.00,Tuesday
34,13158423.644994012
70,2923570.5965399087
222,5108777.048454104
967,13158423.64499401
1206,0.0
2,3, 1, 3, 0, 4, 0.00,60.00,Tuesday
34,13158423.644994012
70,2923570.5965399087
222,5108777.048454104
967,13158423.64499401
1206,0.0
2,3, 1, 3, 0, 5, 0.00,60.00,Tuesday
34,13158423.644994012
70,2923570.5965399087
222,5108777.048454104
967,13158423.64499401
1206,0.0
2,3, 1, 3, 0, 6, 0.00,60.00,Tuesday
34,13970526.588477325
70,3735673.540023218
222,5108777.048454104
967,13970526.588477325
1206,0.0
2,3, 1, 3, 0, 7, 0.00,60.00,Tuesday
34,21016462.580460144
70,2901503.2420463429
222,5985552.087175781
967,21016462.580460144
1206,82122967.96627388
2,3, 1, 3, 0, 8, 0.00,60.00,Tuesday
34,22866156.56308244
70,5298397.224606365
222,5985552.087175781
967,22866156.56308244
1206,103621650.77176376
2,3, 1, 3, 0, 9, 0.00,60.00,Tuesday
34,31191515.842774869
70,10374204.417123018
222,11971104.174351562
967,31191515.842774869
1206,68180347.12238331
2,3, 1, 3, 0,10, 0.00,60.00,Tuesday
34,30755548.176235107
70,9938236.750583254
222,11971104.174351562
967,30755548.17623511
1206,51500854.98377792
2,3, 1, 3, 0,11, 0.00,60.00,Tuesday
34,30749600.457729065
70,9932289.032077214
222,11971104.174351562
967,30749600.457729065
1206,36343765.9031423
2,3, 1, 3, 0,12, 0.00,60.00,Tuesday
34,30787583.243207639
70,9970271.817555789
222,11971104.174351562
967,30787583.24320764
1206,28191055.71903733
2,3, 1, 3, 0,13, 0.00,60.00,Tuesday
34,28968197.090803528
70,8869151.915612773
222,11252837.923890466
967,28968197.09080353
1206,38648798.42335907
2,3, 1, 3, 0,14, 0.00,60.00,Tuesday
34,30672919.80365911
70,9855608.37800726
222,11971104.174351562
967,30672919.803659116
1206,20547027.954444559
2,3, 1, 3, 0,15, 0.00,60.00,Tuesday
34,39471660.954131457
70,9923045.099900376
222,11971104.174351562
967,39471660.954131457
1206,0.0
2,3, 1, 3, 0,16, 0.00,60.00,Tuesday
34,40967676.15158018
70,10239456.519171734
222,11971104.174351562
967,40967676.15158019
1206,0.0
2,3, 1, 3, 0,17, 0.00,60.00,Tuesday
34,43874389.804189357
70,11297692.2585623
222,11971104.174351562
967,43874389.80418936
1206,4523787.067070602
2,3, 1, 3, 0,18, 0.00,60.00,Tuesday
34,44796832.09548251
70,7695291.207166387
222,5985552.087175781
967,44796832.095482509
1206,15044465.44972897
2,3, 1, 3, 0,19, 0.00,60.00,Tuesday
34,40736403.17582941
70,5298397.224606365
222,2394220.834870312
967,40736403.17582941
1206,7166526.369269963
2,3, 1, 3, 0,20, 0.00,60.00,Tuesday
34,13931418.059538957
70,5298397.224606365
222,2394220.834870312
967,13931418.059538952
1206,0.0
2,3, 1, 3, 0,21, 0.00,60.00,Tuesday
34,12669894.910823152
70,4036874.0758905645
222,2394220.834870312
967,12669894.910823152
1206,0.0
2,3, 1, 3, 0,22, 0.00,60.00,Tuesday
34,12669894.910823152
70,4036874.0758905645
222,2394220.834870312
967,12669894.910823152
1206,0.0
2,3, 1, 3, 0,23, 0.00,60.00,Tuesday
34,11534524.076916654
70,2901503.2420463429
222,2394220.834870312
967,11534524.076916654
1206,0.0
2,3, 1, 3, 0,24, 0.00,60.00,Tuesday
34,11205881.415921549
70,2923570.5965399087
222,2043510.819381642
967,11205881.415921549
1206,0.0
2,4, 1, 4, 0, 1, 0.00,60.00,Wednesday
34,13158423.644994012
70,2923570.5965399087
222,5108777.048454104
967,13158423.64499401
1206,0.0
2,4, 1, 4, 0, 2, 0.00,60.00,Wednesday
34,13158423.644994012
70,2923570.5965399087
222,5108777.048454104
967,13158423.64499401
1206,0.0
2,4, 1, 4, 0, 3, 0.00,60.00,Wednesday
34,13158423.644994012
70,2923570.5965399087
222,5108777.048454104
967,13158423.64499401
1206,0.0
2,4, 1, 4, 0, 4, 0.00,60.00,Wednesday
34,13158423.644994012
70,2923570.5965399087
222,5108777.048454104
967,13158423.64499401
1206,0.0
2,4, 1, 4, 0, 5, 0.00,60.00,Wednesday
34,13158423.644994012
70,2923570.5965399087
222,5108777.048454104
967,13158423.64499401
1206,0.0
2,4, 1, 4, 0, 6, 0.00,60.00,Wednesday
34,13970526.588477325
70,3735673.540023218
222,5108777.048454104
967,13970526.588477325
1206,0.0
2,4, 1, 4, 0, 7, 0.00,60.00,Wednesday
34,40345974.2111461
70,2901503.2420463429
222,5985552.087175781
967,40345974.2111461
1206,30739380.923750979
2,4, 1, 4, 0, 8, 0.00,60.00,Wednesday
34,45383008.944945547
70,5272256.387329073
222,5985552.087175781
967,45383008.944945547
1206,41455099.439256098
2,4, 1, 4, 0, 9, 0.00,60.00,Wednesday
34,34701533.539125319
70,10402488.700472424
222,11971104.174351562
967,34701533.53912532
1206,39453635.30913656
2,4, 1, 4, 0,10, 0.00,60.00,Wednesday
34,30787413.32937096
70,9970101.90371911
222,11971104.174351562
967,30787413.329370966
1206,35935302.809376548
2,4, 1, 4, 0,11, 0.00,60.00,Wednesday
34,40276732.7087122
70,9828161.237592407
222,11971104.174351562
967,40276732.7087122
1206,5628248.064266465
2,4, 1, 4, 0,12, 0.00,60.00,Wednesday
34,39721160.81846766
70,9800855.27762749
222,11971104.174351562
967,39721160.81846766
1206,0.0
2,4, 1, 4, 0,13, 0.00,60.00,Wednesday
34,41484014.73900356
70,8851442.53525164
222,11252837.923890466
967,41484014.73900357
1206,0.0
2,4, 1, 4, 0,14, 0.00,60.00,Wednesday
34,37696321.699021499
70,9917885.565895608
222,11971104.174351562
967,37696321.699021499
1206,0.0
2,4, 1, 4, 0,15, 0.00,60.00,Wednesday
34,36567623.41456346
70,9976837.806726419
222,11971104.174351562
967,36567623.41456346
1206,0.0
2,4, 1, 4, 0,16, 0.00,60.00,Wednesday
34,36400721.83258895
70,10257849.866292973
222,11971104.174351562
967,36400721.832588959
1206,0.0
2,4, 1, 4, 0,17, 0.00,60.00,Wednesday
34,40882238.46881109
70,11125416.145084778
222,11971104.174351562
967,40882238.4688111
1206,0.0
2,4, 1, 4, 0,18, 0.00,60.00,Wednesday
34,31609181.881155097
70,7695291.207166387
222,5985552.087175781
967,31609181.881155097
1206,39700461.44168477
2,4, 1, 4, 0,19, 0.00,60.00,Wednesday
34,19822025.310776976
70,5298397.224606365
222,2394220.834870312
967,19822025.310776976
1206,53117950.627236317
2,4, 1, 4, 0,20, 0.00,60.00,Wednesday
34,13931418.059538957
70,5298397.224606365
222,2394220.834870312
967,13931418.059538952
1206,0.0
2,4, 1, 4, 0,21, 0.00,60.00,Wednesday
34,12669894.910823152
70,4036874.0758905645
222,2394220.834870312
967,12669894.910823152
1206,0.0
2,4, 1, 4, 0,22, 0.00,60.00,Wednesday
34,12669894.910823152
70,4036874.0758905645
222,2394220.834870312
967,12669894.910823152
1206,0.0
2,4, 1, 4, 0,23, 0.00,60.00,Wednesday
34,11534524.076916654
70,2901503.2420463429
222,2394220.834870312
967,11534524.076916654
1206,0.0
2,4, 1, 4, 0,24, 0.00,60.00,Wednesday
34,11205881.415921549
70,2923570.5965399087
222,2043510.819381642
967,11205881.415921549
1206,0.0
2,5, 1, 5, 0, 1, 0.00,60.00,Thursday
34,13158423.644994012
70,2923570.5965399087
222,5108777.048454104
967,13158423.64499401
1206,0.0
2,5, 1, 5, 0, 2, 0.00,60.00,Thursday
34,13158423.644994012
70,2923570.5965399087
222,5108777.048454104
967,13158423.64499401
1206,0.0
2,5, 1, 5, 0, 3, 0.00,60.00,Thursday
34,13158423.644994012
70,2923570.5965399087
222,5108777.048454104
967,13158423.64499401
1206,0.0
2,5, 1, 5, 0, 4, 0.00,60.00,Thursday
34,13158423.644994012
70,2923570.5965399087
222,5108777.048454104
967,13158423.64499401
1206,0.0
2,5, 1, 5, 0, 5, 0.00,60.00,Thursday
34,13158423.644994012
70,2923570.5965399087
222,5108777.048454104
967,13158423.64499401
1206,0.0
2,5, 1, 5, 0, 6, 0.00,60.00,Thursday
34,13970526.588477325
70,3735673.540023218
222,5108777.048454104
967,13970526.588477325
1206,0.0
2,5, 1, 5, 0, 7, 0.00,60.00,Thursday
34,21016462.580460144
70,2901503.2420463429
222,5985552.087175781
967,21016462.580460144
1206,89622319.11162825
2,5, 1, 5, 0, 8, 0.00,60.00,Thursday
34,22840015.72580515
70,5272256.387329073
222,5985552.087175781
967,22840015.725805146
1206,110372615.39177834
2,5, 1, 5, 0, 9, 0.00,60.00,Thursday
34,31168800.104583414
70,10351488.67893156
222,11971104.174351562
967,31168800.104583414
1206,74783510.44228591
2,5, 1, 5, 0,10, 0.00,60.00,Thursday
34,30685318.7690568
70,9868007.343404955
222,11971104.174351562
967,30685318.769056806
1206,56237158.12738162
2,5, 1, 5, 0,11, 0.00,60.00,Thursday
34,30504871.564019368
70,9687560.13836752
222,11971104.174351562
967,30504871.56401937
1206,44734912.52069011
2,5, 1, 5, 0,12, 0.00,60.00,Thursday
34,30308131.134295394
70,9490819.708643547
222,11971104.174351562
967,30308131.134295398
1206,39358811.05591037
2,5, 1, 5, 0,13, 0.00,60.00,Thursday
34,28695742.813867857
70,8596697.638677102
222,11252837.923890466
967,28695742.813867857
1206,60507464.6043007
2,5, 1, 5, 0,14, 0.00,60.00,Thursday
34,30347977.240107944
70,9530665.814456094
222,11971104.174351562
967,30347977.240107944
1206,35642268.342577
2,5, 1, 5, 0,15, 0.00,60.00,Thursday
34,30729677.40482279
70,9912365.979170939
222,11971104.174351562
967,30729677.404822794
1206,34491044.395319897
2,5, 1, 5, 0,16, 0.00,60.00,Thursday
34,30930332.31888215
70,10113020.893230303
222,11971104.174351562
967,30930332.31888216
1206,33455687.32829818
2,5, 1, 5, 0,17, 0.00,60.00,Thursday
34,33037127.570736626
70,11125416.145084778
222,11971104.174351562
967,33037127.57073663
1206,40104949.45248918
2,5, 1, 5, 0,18, 0.00,60.00,Thursday
34,25810250.54564246
70,7695291.207166387
222,5985552.087175781
967,25810250.545642467
1206,77960362.38682379
2,5, 1, 5, 0,19, 0.00,60.00,Thursday
34,19822025.310776976
70,5298397.224606365
222,2394220.834870312
967,19822025.310776976
1206,74291891.99076921
2,5, 1, 5, 0,20, 0.00,60.00,Thursday
34,13931418.059538957
70,5298397.224606365
222,2394220.834870312
967,13931418.059538952
1206,0.0
2,5, 1, 5, 0,21, 0.00,60.00,Thursday
34,12669894.910823152
70,4036874.0758905645
222,2394220.834870312
967,12669894.910823152
1206,0.0
2,5, 1, 5, 0,22, 0.00,60.00,Thursday
34,12669894.910823152
70,4036874.0758905645
222,2394220.834870312
967,12669894.910823152
1206,0.0
2,5, 1, 5, 0,23, 0.00,60.00,Thursday
34,11534524.076916654
70,2901503.2420463429
222,2394220.834870312
967,11534524.076916654
1206,0.0
2,5, 1, 5, 0,24, 0.00,60.00,Thursday
34,11205881.415921549
70,2923570.5965399087
222,2043510.819381642
967,11205881.415921549
1206,0.0
2,6, 1, 6, 0, 1, 0.00,60.00,Friday
34,13158423.644994012
70,2923570.5965399087
222,5108777.048454104
967,13158423.64499401
1206,0.0
2,6, 1, 6, 0, 2, 0.00,60.00,Friday
34,14497599.846354485
70,2923570.5965399087
222,5108777.048454104
967,14497599.84635448
1206,1609959.467454932
2,6, 1, 6, 0, 3, 0.00,60.00,Friday
34,14852739.966087509
70,2923570.5965399087
222,5108777.048454104
967,14852739.966087506
1206,4229975.436700122
2,6, 1, 6, 0, 4, 0.00,60.00,Friday
34,16072883.271518823
70,2923570.5965399087
222,5108777.048454104
967,16072883.271518823
1206,4693652.360462546
2,6, 1, 6, 0, 5, 0.00,60.00,Friday
34,15675646.612443259
70,2923570.5965399087
222,5108777.048454104
967,15675646.61244326
1206,7528571.921590224
2,6, 1, 6, 0, 6, 0.00,60.00,Friday
34,17257826.57075841
70,3735673.540023218
222,5108777.048454104
967,17257826.57075841
1206,6325929.44988332
2,6, 1, 6, 0, 7, 0.00,60.00,Friday
34,21016462.580460144
70,2901503.2420463429
222,5985552.087175781
967,21016462.580460144
1206,100318943.82383158
2,6, 1, 6, 0, 8, 0.00,60.00,Friday
34,22866156.56308244
70,5298397.224606365
222,5985552.087175781
967,22866156.56308244
1206,122016374.47434
2,6, 1, 6, 0, 9, 0.00,60.00,Friday
34,31292727.701355313
70,10475416.275703466
222,11971104.174351562
967,31292727.701355325
1206,93642139.58924647
2,6, 1, 6, 0,10, 0.00,60.00,Friday
34,30755548.176235107
70,9938236.750583254
222,11971104.174351562
967,30755548.176235107
1206,77243443.83059117
2,6, 1, 6, 0,11, 0.00,60.00,Friday
34,30742864.554721755
70,9925553.129069906
222,11971104.174351562
967,30742864.554721759
1206,58733602.32250198
2,6, 1, 6, 0,12, 0.00,60.00,Friday
34,30807506.296113913
70,9990194.870462064
222,11971104.174351562
967,30807506.296113925
1206,47149270.16368844
2,6, 1, 6, 0,13, 0.00,60.00,Friday
34,28875191.470474267
70,8776146.295283508
222,11252837.923890466
967,28875191.470474267
1206,63159297.78760612
2,6, 1, 6, 0,14, 0.00,60.00,Friday
34,30355501.327616525
70,9538189.901964676
222,11971104.174351562
967,30355501.327616525
1206,40292486.221264097
2,6, 1, 6, 0,15, 0.00,60.00,Friday
34,30532318.704434225
70,9715007.278782376
222,11971104.174351562
967,30532318.704434229
1206,39122507.57900642
2,6, 1, 6, 0,16, 0.00,60.00,Friday
34,30878544.11284002
70,10061232.68718817
222,11971104.174351562
967,30878544.112840028
1206,39233888.440269228
2,6, 1, 6, 0,17, 0.00,60.00,Friday
34,33209403.684214146
70,11297692.2585623
222,11971104.174351562
967,33209403.684214146
1206,43552712.68334316
2,6, 1, 6, 0,18, 0.00,60.00,Friday
34,25810250.54564246
70,7695291.207166387
222,5985552.087175781
967,25810250.545642467
1206,78287248.96464822
2,6, 1, 6, 0,19, 0.00,60.00,Friday
34,19822025.310776976
70,5298397.224606365
222,2394220.834870312
967,19822025.310776976
1206,71460455.74641849
2,6, 1, 6, 0,20, 0.00,60.00,Friday
34,13931418.059538957
70,5298397.224606365
222,2394220.834870312
967,13931418.059538952
1206,0.0
2,6, 1, 6, 0,21, 0.00,60.00,Friday
34,12669894.910823152
70,4036874.0758905645
222,2394220.834870312
967,12669894.910823152
1206,0.0
2,6, 1, 6, 0,22, 0.00,60.00,Friday
34,12669894.910823152
70,4036874.0758905645
222,2394220.834870312
967,12669894.910823152
1206,0.0
2,6, 1, 6, 0,23, 0.00,60.00,Friday
34,11534524.076916654
70,2901503.2420463429
222,2394220.834870312
967,11534524.076916654
1206,0.0
2,6, 1, 6, 0,24, 0.00,60.00,Friday
34,11205881.415921549
70,2923570.5965399087
222,2043510.819381642
967,11205881.415921549
1206,0.0
2,7, 1, 7, 0, 1, 0.00,60.00,Saturday
34,10093157.415921549
70,2923570.5965399087
222,2043510.819381642
967,10093157.415921549
1206,0.0
2,7, 1, 7, 0, 2, 0.00,60.00,Saturday
34,10093157.415921549
70,2923570.5965399087
222,2043510.819381642
967,10093157.415921549
1206,0.0
2,7, 1, 7, 0, 3, 0.00,60.00,Saturday
34,11514261.449327082
70,2923570.5965399087
222,2043510.819381642
967,11514261.449327082
1206,1782164.4328665164
2,7, 1, 7, 0, 4, 0.00,60.00,Saturday
34,12525005.607883627
70,2923570.5965399087
222,2043510.819381642
967,12525005.607883627
1206,5195991.577442018
2,7, 1, 7, 0, 5, 0.00,60.00,Saturday
34,12884772.38674983
70,2923570.5965399087
222,2043510.819381642
967,12884772.38674983
1206,6300643.385391935
2,7, 1, 7, 0, 6, 0.00,60.00,Saturday
34,13018282.439429325
70,2923570.5965399087
222,2043510.819381642
967,13018282.439429325
1206,8135171.646924963
2,7, 1, 7, 0, 7, 0.00,60.00,Saturday
34,14315163.879440342
70,2923570.5965399087
222,2043510.819381642
967,14315163.879440342
1206,9677146.822821532
2,7, 1, 7, 0, 8, 0.00,60.00,Saturday
34,12994396.345625066
70,2923570.5965399087
222,2043510.819381642
967,12994396.345625069
1206,5546920.73307099
2,7, 1, 7, 0, 9, 0.00,60.00,Saturday
34,9343570.669703618
70,2681898.3411222377
222,2043510.819381642
967,9343570.669703616
1206,2290061.1325139824
2,7, 1, 7, 0,10, 0.00,60.00,Saturday
34,8833516.649326146
70,2611654.031103746
222,2043510.819381642
967,8833516.649326146
1206,2408988.040407543
2,7, 1, 7, 0,11, 0.00,60.00,Saturday
34,8024049.561607695
70,2556467.6154840516
222,2043510.819381642
967,8024049.561607695
1206,235927.09095381533
2,7, 1, 7, 0,12, 0.00,60.00,Saturday
34,7518984.485921558
70,2519873.666539918
222,2043510.819381642
967,7518984.485921557
1206,0.0
2,7, 1, 7, 0,13, 0.00,60.00,Saturday
34,7495880.544882895
70,2496769.725501256
222,2043510.819381642
967,7495880.544882895
1206,0.0
2,7, 1, 7, 0,14, 0.00,60.00,Saturday
34,7510945.838105242
70,2511835.018723601
222,2043510.819381642
967,7510945.838105242
1206,0.0
2,7, 1, 7, 0,15, 0.00,60.00,Saturday
34,7564213.937531989
70,2565103.1181503485
222,2043510.819381642
967,7564213.937531989
1206,0.0
2,7, 1, 7, 0,16, 0.00,60.00,Saturday
34,7689644.663170176
70,2690533.843788535
222,2043510.819381642
967,7689644.663170174
1206,0.0
2,7, 1, 7, 0,17, 0.00,60.00,Saturday
34,9017081.415921549
70,2923570.5965399087
222,2043510.819381642
967,9017081.415921549
1206,0.0
2,7, 1, 7, 0,18, 0.00,60.00,Saturday
34,11589569.027514045
70,2923570.5965399087
222,2043510.819381642
967,11589569.027514045
1206,1338462.7731090589
2,7, 1, 7, 0,19, 0.00,60.00,Saturday
34,13256848.588162575
70,2923570.5965399087
222,2043510.819381642
967,13256848.588162575
1206,4985164.039609771
2,7, 1, 7, 0,20, 0.00,60.00,Saturday
34,13356310.575021502
70,2923570.5965399087
222,2043510.819381642
967,13356310.575021504
1206,5303530.170880953
2,7, 1, 7, 0,21, 0.00,60.00,Saturday
34,13444406.916973172
70,2923570.5965399087
222,2043510.819381642
967,13444406.916973172
1206,7282196.679909101
2,7, 1, 7, 0,22, 0.00,60.00,Saturday
34,14279247.400296644
70,2923570.5965399087
222,2043510.819381642
967,14279247.400296644
1206,9281272.054970235
2,7, 1, 7, 0,23, 0.00,60.00,Saturday
34,14504862.75911608
70,2923570.5965399087
222,2043510.819381642
967,14504862.75911608
1206,9603918.39519924
2,7, 1, 7, 0,24, 0.00,60.00,Saturday
34,14426456.522673468
70,2923570.5965399087
222,2043510.819381642
967,14426456.522673468
1206,9449980.4538983
2,8, 1, 8, 0, 1, 0.00,60.00,Sunday
34,13305332.258844734
70,2923570.5965399087
222,2043510.819381642
967,13305332.258844734
1206,9859082.156994649
2,8, 1, 8, 0, 2, 0.00,60.00,Sunday
34,13418075.01637936
70,2923570.5965399087
222,2043510.819381642
967,13418075.016379357
1206,10289684.36984139
2,8, 1, 8, 0, 3, 0.00,60.00,Sunday
34,13403374.020711024
70,2923570.5965399087
222,2043510.819381642
967,13403374.020711022
1206,10048636.756324985
2,8, 1, 8, 0, 4, 0.00,60.00,Sunday
34,13417290.066384746
70,2923570.5965399087
222,2043510.819381642
967,13417290.06638474
1206,10307460.338394117
2,8, 1, 8, 0, 5, 0.00,60.00,Sunday
34,13433420.30109636
70,2923570.5965399087
222,2043510.819381642
967,13433420.301096356
1206,10777395.430042655
2,8, 1, 8, 0, 6, 0.00,60.00,Sunday
34,17561075.72859837
70,2923570.5965399087
222,2043510.819381642
967,17561075.72859837
1206,693278.5780752648
2,8, 1, 8, 0, 7, 0.00,60.00,Sunday
34,18426140.266603117
70,2923570.5965399087
222,2043510.819381642
967,18426140.266603117
1206,377435.2735094992
2,8, 1, 8, 0, 8, 0.00,60.00,Sunday
34,16975485.605230117
70,2923570.5965399087
222,2043510.819381642
967,16975485.605230117
1206,508855.417038388
2,8, 1, 8, 0, 9, 0.00,60.00,Sunday
34,12980894.912357388
70,2759019.3261905617
222,2043510.819381642
967,12980894.912357388
1206,90261.76306718901
2,8, 1, 8, 0,10, 0.00,60.00,Sunday
34,9465730.4489719
70,2554087.3105208615
222,2043510.819381642
967,9465730.448971898
1206,213548.68304248825
2,8, 1, 8, 0,11, 0.00,60.00,Sunday
34,9719027.47909231
70,2525613.2979493748
222,2043510.819381642
967,9719027.47909231
1206,37688.18440430437
2,8, 1, 8, 0,12, 0.00,60.00,Sunday
34,8133787.996849662
70,2483957.861002094
222,2043510.819381642
967,8133787.996849661
1206,0.0
2,8, 1, 8, 0,13, 0.00,60.00,Sunday
34,7434986.825803403
70,2435876.0064217618
222,2043510.819381642
967,7434986.825803403
1206,0.0
2,8, 1, 8, 0,14, 0.00,60.00,Sunday
34,7433695.194890097
70,2434584.375508456
222,2043510.819381642
967,7433695.194890096
1206,0.0
2,8, 1, 8, 0,15, 0.00,60.00,Sunday
34,7498779.789062733
70,2499668.969681092
222,2043510.819381642
967,7498779.789062732
1206,0.0
2,8, 1, 8, 0,16, 0.00,60.00,Sunday
34,7604736.947755629
70,2605626.128373987
222,2043510.819381642
967,7604736.947755627
1206,0.0
2,8, 1, 8, 0,17, 0.00,60.00,Sunday
34,9002657.321239124
70,2909146.501857482
222,2043510.819381642
967,9002657.321239124
1206,0.0
2,8, 1, 8, 0,18, 0.00,60.00,Sunday
34,11205881.415921549
70,2923570.5965399087
222,2043510.819381642
967,11205881.415921549
1206,0.0
2,8, 1, 8, 0,19, 0.00,60.00,Sunday
34,11205881.415921549
70,2923570.5965399087
222,2043510.819381642
967,11205881.415921549
1206,0.0
2,8, 1, 8, 0,20, 0.00,60.00,Sunday
34,11205881.415921549
70,2923570.5965399087
222,2043510.819381642
967,11205881.415921549
1206,0.0
2,8, 1, 8, 0,21, 0.00,60.00,Sunday
34,11205881.415921549
70,2923570.5965399087
222,2043510.819381642
967,11205881.415921549
1206,0.0
2,8, 1, 8, 0,22, 0.00,60.00,Sunday
34,11205881.415921549
70,2923570.5965399087
222,2043510.819381642
967,11205881.415921549
1206,0.0
2,8, 1, 8, 0,23, 0.00,60.00,Sunday
34,11205881.415921549
70,2923570.5965399087
222,2043510.819381642
967,11205881.415921549
1206,0.0
2,8, 1, 8, 0,24, 0.00,60.00,Sunday
34,11205881.415921549
70,2923570.5965399087
222,2043510.819381642
967,11205881.415921549
1206,0.0
2,9, 1, 9, 0, 1, 0.00,60.00,Monday
34,13158423.644994012
70,2923570.5965399087
222,5108777.048454104
967,13158423.64499401
1206,0.0
2,9, 1, 9, 0, 2, 0.00,60.00,Monday
34,13158423.644994012
70,2923570.5965399087
222,5108777.048454104
967,13158423.64499401
1206,0.0
2,9, 1, 9, 0, 3, 0.00,60.00,Monday
34,13158423.644994012
70,2923570.5965399087
222,5108777.048454104
967,13158423.64499401
1206,0.0
2,9, 1, 9, 0, 4, 0.00,60.00,Monday
34,13158423.644994012
70,2923570.5965399087
222,5108777.048454104
967,13158423.64499401
1206,0.0
2,9, 1, 9, 0, 5, 0.00,60.00,Monday
34,13158423.644994012
70,2923570.5965399087
222,5108777.048454104
967,13158423.64499401
1206,0.0
2,9, 1, 9, 0, 6, 0.00,60.00,Monday
34,13970526.588477325
70,3735673.540023218
222,5108777.048454104
967,13970526.588477325
1206,0.0
2,9, 1, 9, 0, 7, 0.00,60.00,Monday
34,46367046.91084276
70,2901503.2420463429
222,5985552.087175781
967,46367046.91084276
1206,26152738.815457759
2,9, 1, 9, 0, 8, 0.00,60.00,Monday
34,48483964.74672294
70,5282724.225631113
222,5985552.087175781
967,48483964.74672293
1206,18447954.193410398
2,9, 1, 9, 0, 9, 0.00,60.00,Monday
34,48286757.93188919
70,10466960.528027902
222,11971104.174351562
967,48286757.93188919
1206,96742.9411891016
2,9, 1, 9, 0,10, 0.00,60.00,Monday
34,42375839.0482644
70,9945760.838091836
222,11971104.174351562
967,42375839.0482644
1206,0.0
2,9, 1, 9, 0,11, 0.00,60.00,Monday
34,41653211.00768422
70,10218696.32333091
222,11971104.174351562
967,41653211.00768423
1206,0.0
2,9, 1, 9, 0,12, 0.00,60.00,Monday
34,40164370.43842398
70,10065003.695857844
222,11971104.174351562
967,40164370.438423987
1206,0.0
2,9, 1, 9, 0,13, 0.00,60.00,Monday
34,40631414.191795829
70,8404201.494817693
222,11252837.923890466
967,40631414.19179583
1206,0.0
2,9, 1, 9, 0,14, 0.00,60.00,Monday
34,34949482.170459058
70,9642697.974215921
222,11971104.174351562
967,34949482.170459058
1206,0.0
2,9, 1, 9, 0,15, 0.00,60.00,Monday
34,34062658.71416952
70,9898894.17315632
222,11971104.174351562
967,34062658.714169528
1206,0.0
2,9, 1, 9, 0,16, 0.00,60.00,Monday
34,33897561.43717506
70,10113020.893230303
222,11971104.174351562
967,33897561.437175068
1206,0.0
2,9, 1, 9, 0,17, 0.00,60.00,Monday
34,37422538.25570966
70,11125416.145084778
222,11971104.174351562
967,37422538.25570966
1206,0.0
2,9, 1, 9, 0,18, 0.00,60.00,Monday
34,41840930.70777719
70,7695291.207166387