Program Version,EnergyPlus, Version 9.0.1-bb7ca4f0da, YMD=2019.03.13 17:20
1,5,Environment Title[],Latitude[deg],Longitude[deg],Time Zone[],Elevation[m]
2,8,Day of Simulation[],Month[],Day of Month[],DST Indicator[1=yes 0=no],Hour[],StartMinute[],EndMinute[],DayType
3,5,Cumulative Day of Simulation[],Month[],Day of Month[],DST Indicator[1=yes 0=no],DayType  ! When Daily Meters Requested
4,2,Cumulative Days of Simulation[],Month[]  ! When Monthly Meters Requested
5,1,Cumulative Days of Simulation[] ! When Run Period Meters Requested
6,1,Calendar Year of Simulation[] ! When Annual Meters Requested
70,1,InteriorLights:Electricity [J] !Hourly
222,1,InteriorEquipment:Electricity [J] !Hourly
34,1,Electricity:Facility [J] !Hourly
967,1,ElectricityNet:Facility [J] !Hourly
1206,1,Gas:Facility [J] !Hourly
End of Data Dictionary
1,RUNPERIOD 1,  64.82,-147.85,  -9.00, 133.00
2,1, 1, 1, 0, 1, 0.00,60.00,Holiday
34,12756666.611078524
70,2923570.5965399087
222,2043510.819381642
967,12756666.611078522
1206,5102816.526724439
2,1, 1, 1, 0, 2, 0.00,60.00,Holiday
34,12121629.211407764
70,2923570.5965399087
222,2043510.819381642
967,12121629.21140776
1206,2265534.385113206
2,1, 1, 1, 0, 3, 0.00,60.00,Holiday
34,11517178.031551414
70,2923570.5965399087
222,2043510.819381642
967,11517178.03155141
1206,2557047.369572704
2,1, 1, 1, 0, 4, 0.00,60.00,Holiday
34,11019639.645562446
70,2923570.5965399087
222,2043510.819381642
967,11019639.645562446
1206,359558.67704890036
2,1, 1, 1, 0, 5, 0.00,60.00,Holiday
34,12097748.994660233
70,2923570.5965399087
222,2043510.819381642
967,12097748.994660233
1206,2502640.6194550909
2,1, 1, 1, 0, 6, 0.00,60.00,Holiday
34,12890072.141933803
70,2923570.5965399087
222,2043510.819381642
967,12890072.141933803
1206,4496644.077991705
2,1, 1, 1, 0, 7, 0.00,60.00,Holiday
34,13632509.775811296
70,2923570.5965399087
222,2043510.819381642
967,13632509.775811295
1206,3438412.2356750338
2,1, 1, 1, 0, 8, 0.00,60.00,Holiday
34,14505542.530634165
70,2923570.5965399087
222,2043510.819381642
967,14505542.530634165
1206,5956837.751232865
2,1, 1, 1, 0, 9, 0.00,60.00,Holiday
34,14182473.751448323
70,2923570.5965399087
222,2043510.819381642
967,14182473.751448319
1206,4210973.602783598
2,1, 1, 1, 0,10, 0.00,60.00,Holiday
34,14599337.056718221
70,2923570.5965399087
222,2043510.819381642
967,14599337.056718218
1206,5904682.446863395
2,1, 1, 1, 0,11, 0.00,60.00,Holiday
34,14158552.458543323
70,2923570.5965399087
222,2043510.819381642
967,14158552.45854332
1206,4307041.133251453
2,1, 1, 1, 0,12, 0.00,60.00,Holiday
34,11216249.03518532
70,2923570.5965399087
222,2043510.819381642
967,11216249.035185319
1206,5956415.008069148
2,1, 1, 1, 0,13, 0.00,60.00,Holiday
34,10400767.825850316
70,2923570.5965399087
222,2043510.819381642
967,10400767.825850314
1206,3491036.904210307
2,1, 1, 1, 0,14, 0.00,60.00,Holiday
34,10575660.629146954
70,2923570.5965399087
222,2043510.819381642
967,10575660.629146953
1206,5578551.177606173
2,1, 1, 1, 0,15, 0.00,60.00,Holiday
34,11656885.222575566
70,2923570.5965399087
222,2043510.819381642
967,11656885.222575566
1206,1838066.427947511
2,1, 1, 1, 0,16, 0.00,60.00,Holiday
34,12853352.905016236
70,2923570.5965399087
222,2043510.819381642
967,12853352.905016233
1206,2243886.1824657826
2,1, 1, 1, 0,17, 0.00,60.00,Holiday
34,13276894.0282017
70,2923570.5965399087
222,2043510.819381642
967,13276894.028201696
1206,4793952.7884711059
2,1, 1, 1, 0,18, 0.00,60.00,Holiday
34,14670741.409284335
70,2923570.5965399087
222,2043510.819381642
967,14670741.40928433
1206,4280841.893702051
2,1, 1, 1, 0,19, 0.00,60.00,Holiday
34,13828946.80261579
70,2923570.5965399087
222,2043510.819381642
967,13828946.802615788
1206,6746935.4287147619
2,1, 1, 1, 0,20, 0.00,60.00,Holiday
34,15145399.131631528
70,2923570.5965399087
222,2043510.819381642
967,15145399.131631524
1206,5989800.422959909
2,1, 1, 1, 0,21, 0.00,60.00,Holiday
34,13799041.832835066
70,2923570.5965399087
222,2043510.819381642
967,13799041.83283506
1206,6457811.230855335
2,1, 1, 1, 0,22, 0.00,60.00,Holiday
34,15021681.754768333
70,2923570.5965399087
222,2043510.819381642
967,15021681.754768327
1206,4707576.616519155
2,1, 1, 1, 0,23, 0.00,60.00,Holiday
34,13709093.23084105
70,2923570.5965399087
222,2043510.819381642
967,13709093.230841048
1206,5561568.9433738379
2,1, 1, 1, 0,24, 0.00,60.00,Holiday
34,14674280.62198014
70,2923570.5965399087
222,2043510.819381642
967,14674280.621980133
1206,3888044.9049505798
2,2, 1, 2, 0, 1, 0.00,60.00,Monday
34,14901046.445542068
70,2923570.5965399087
222,5108777.048454104
967,14901046.445542066
1206,1967961.4973422997
2,2, 1, 2, 0, 2, 0.00,60.00,Monday
34,15123988.58203604
70,2923570.5965399087
222,5108777.048454104
967,15123988.58203604
1206,3530931.0237015506
2,2, 1, 2, 0, 3, 0.00,60.00,Monday
34,15077809.571069884
70,2923570.5965399087
222,5108777.048454104
967,15077809.571069882
1206,1783451.4447739395
2,2, 1, 2, 0, 4, 0.00,60.00,Monday
34,15414710.741423674
70,2923570.5965399087
222,5108777.048454104
967,15414710.741423672
1206,2255920.92368585
2,2, 1, 2, 0, 5, 0.00,60.00,Monday
34,13979728.57638639
70,2923570.5965399087
222,5108777.048454104
967,13979728.57638639
1206,285996.211313539
2,2, 1, 2, 0, 6, 0.00,60.00,Monday
34,14224914.75876981
70,3735673.540023218
222,5108777.048454104
967,14224914.75876981
1206,214395.22624862198
2,2, 1, 2, 0, 7, 0.00,60.00,Monday
34,21414532.960982037
70,2901503.2420463429
222,5985552.087175781
967,21414532.960982037
1206,96604736.97456247
2,2, 1, 2, 0, 8, 0.00,60.00,Monday
34,23811426.943604344
70,5298397.224606365
222,5985552.087175781
967,23811426.943604337
1206,112096148.28800085
2,2, 1, 2, 0, 9, 0.00,60.00,Monday
34,35852290.144615959
70,11353708.338442214
222,11971104.174351562
967,35852290.144615959
1206,74347932.21383848
2,2, 1, 2, 0,10, 0.00,60.00,Monday
34,35852290.144615959
70,11353708.338442214
222,11971104.174351562
967,35852290.144615959
1206,68012733.39270646
2,2, 1, 2, 0,11, 0.00,60.00,Monday
34,35852290.144615959
70,11353708.338442214
222,11971104.174351562
967,35852290.144615959
1206,65147082.70106928
2,2, 1, 2, 0,12, 0.00,60.00,Monday
34,33116290.144615957
70,11353708.338442214
222,11971104.174351562
967,33116290.144615957
1206,62413625.80017687
2,2, 1, 2, 0,13, 0.00,60.00,Monday
34,30589300.745439065
70,10092185.189726409
222,11252837.923890466
967,30589300.745439069
1206,82253991.01447968
2,2, 1, 2, 0,14, 0.00,60.00,Monday
34,32569090.144615957
70,11353708.338442214
222,11971104.174351562
967,32569090.14461596
1206,58628739.57409684
2,2, 1, 2, 0,15, 0.00,60.00,Monday
34,34210690.144615959
70,11353708.338442214
222,11971104.174351562
967,34210690.14461596
1206,55985840.349859658
2,2, 1, 2, 0,16, 0.00,60.00,Monday
34,35852290.144615959
70,11353708.338442214
222,11971104.174351562
967,35852290.144615959
1206,54313061.80574229
2,2, 1, 2, 0,17, 0.00,60.00,Monday
34,35852290.144615959
70,11353708.338442214
222,11971104.174351562
967,35852290.144615959
1206,53646225.39541102
2,2, 1, 2, 0,18, 0.00,60.00,Monday
34,26208320.926164368
70,7695291.207166387
222,5985552.087175781
967,26208320.926164356
1206,84063593.36948234
2,2, 1, 2, 0,19, 0.00,60.00,Monday
34,20220095.69129887
70,5298397.224606365
222,2394220.834870312
967,20220095.691298866
1206,73730283.57791294
2,2, 1, 2, 0,20, 0.00,60.00,Monday
34,13931418.059538957
70,5298397.224606365
222,2394220.834870312
967,13931418.059538952
1206,0.0
2,2, 1, 2, 0,21, 0.00,60.00,Monday
34,12669894.910823152
70,4036874.0758905645
222,2394220.834870312
967,12669894.910823152
1206,0.0
2,2, 1, 2, 0,22, 0.00,60.00,Monday
34,12669894.910823152
70,4036874.0758905645
222,2394220.834870312
967,12669894.910823152
1206,0.0
2,2, 1, 2, 0,23, 0.00,60.00,Monday
34,11534524.076916654
70,2901503.2420463429
222,2394220.834870312
967,11534524.076916654
1206,0.0
2,2, 1, 2, 0,24, 0.00,60.00,Monday
34,11205881.415921549
70,2923570.5965399087
222,2043510.819381642
967,11205881.415921549
1206,0.0
2,3, 1, 3, 0, 1, 0.00,60.00,Tuesday
34,13158423.644994012
70,2923570.5965399087
222,5108777.048454104
967,13158423.64499401
1206,0.0
2,3, 1, 3, 0, 2, 0.00,60.00,Tuesday
34,13158423.644994012
70,2923570.5965399087
222,5108777.048454104
967,13158423.64499401
1206,0.0
2,3, 1, 3, 0, 3, 0.00,60.00,Tuesday
34,13158423.644994012
70,2923570.5965399087
222,5108777.048454104
967,13158423.64499401
1206,0.0
2,3, 1, 3, 0, 4, 0.00,60.00,Tuesday
34,13158423.644994012
70,2923570.5965399087
222,5108777.048454104
967,13158423.64499401
1206,0.0
2,3, 1, 3, 0, 5, 0.00,60.00,Tuesday
34,13158423.644994012
70,2923570.5965399087
222,5108777.048454104
967,13158423.64499401
1206,0.0
2,3, 1, 3, 0, 6, 0.00,60.00,Tuesday
34,13970526.588477325
70,3735673.540023218
222,5108777.048454104
967,13970526.588477325
1206,0.0
2,3, 1, 3, 0, 7, 0.00,60.00,Tuesday
34,21414532.960982037
70,2901503.2420463429
222,5985552.087175781
967,21414532.960982033
1206,76758227.0225853
2,3, 1, 3, 0, 8, 0.00,60.00,Tuesday
34,23811426.943604344
70,5298397.224606365
222,5985552.087175781
967,23811426.943604337
1206,110689061.33072859
2,3, 1, 3, 0, 9, 0.00,60.00,Tuesday
34,35852290.144615959
70,11353708.338442214
222,11971104.174351562
967,35852290.144615959
1206,80986790.34301344
2,3, 1, 3, 0,10, 0.00,60.00,Tuesday
34,35852290.144615959
70,11353708.338442214
222,11971104.174351562
967,35852290.144615959
1206,74059983.35435368
2,3, 1, 3, 0,11, 0.00,60.00,Tuesday
34,35852290.144615959
70,11353708.338442214
222,11971104.174351562
967,35852290.144615959
1206,71649927.2604815
2,3, 1, 3, 0,12, 0.00,60.00,Tuesday
34,32938854.497133666
70,11176272.690959922
222,11971104.174351562
967,32938854.49713367
1206,66868287.04156586
2,3, 1, 3, 0,13, 0.00,60.00,Tuesday
34,30589300.745439065
70,10092185.189726409
222,11252837.923890466
967,30589300.745439069
1206,85595682.09413761
2,3, 1, 3, 0,14, 0.00,60.00,Tuesday
34,32569090.144615957
70,11353708.338442214
222,11971104.174351562
967,32569090.14461596
1206,60101348.98580709
2,3, 1, 3, 0,15, 0.00,60.00,Tuesday
34,34210690.144615959
70,11353708.338442214
222,11971104.174351562
967,34210690.14461596
1206,59767258.91153764
2,3, 1, 3, 0,16, 0.00,60.00,Tuesday
34,35852290.144615959
70,11353708.338442214
222,11971104.174351562
967,35852290.144615959
1206,61542662.277691829
2,3, 1, 3, 0,17, 0.00,60.00,Tuesday
34,35852290.144615959
70,11353708.338442214
222,11971104.174351562
967,35852290.144615959
1206,62704907.26025991
2,3, 1, 3, 0,18, 0.00,60.00,Tuesday
34,26208320.926164368
70,7695291.207166387
222,5985552.087175781
967,26208320.926164356
1206,92903958.22309828
2,3, 1, 3, 0,19, 0.00,60.00,Tuesday
34,20220095.69129887
70,5298397.224606365
222,2394220.834870312
967,20220095.691298866
1206,87780968.74638605
2,3, 1, 3, 0,20, 0.00,60.00,Tuesday
34,13931418.059538957
70,5298397.224606365
222,2394220.834870312
967,13931418.059538952
1206,0.0
2,3, 1, 3, 0,21, 0.00,60.00,Tuesday
34,12669894.910823152
70,4036874.0758905645
222,2394220.834870312
967,12669894.910823152
1206,0.0
2,3, 1, 3, 0,22, 0.00,60.00,Tuesday
34,12669894.910823152
70,4036874.0758905645
222,2394220.834870312
967,12669894.910823152
1206,0.0
2,3, 1, 3, 0,23, 0.00,60.00,Tuesday
34,11534524.076916654
70,2901503.2420463429
222,2394220.834870312
967,11534524.076916654
1206,0.0
2,3, 1, 3, 0,24, 0.00,60.00,Tuesday
34,11205881.415921549
70,2923570.5965399087
222,2043510.819381642
967,11205881.415921549
1206,0.0
2,4, 1, 4, 0, 1, 0.00,60.00,Wednesday
34,13158423.644994012
70,2923570.5965399087
222,5108777.048454104
967,13158423.64499401
1206,0.0
2,4, 1, 4, 0, 2, 0.00,60.00,Wednesday
34,13158423.644994012
70,2923570.5965399087
222,5108777.048454104
967,13158423.64499401
1206,0.0
2,4, 1, 4, 0, 3, 0.00,60.00,Wednesday
34,13158423.644994012
70,2923570.5965399087
222,5108777.048454104
967,13158423.64499401
1206,0.0
2,4, 1, 4, 0, 4, 0.00,60.00,Wednesday
34,13158423.644994012
70,2923570.5965399087
222,5108777.048454104
967,13158423.64499401
1206,0.0
2,4, 1, 4, 0, 5, 0.00,60.00,Wednesday
34,13158423.644994012
70,2923570.5965399087
222,5108777.048454104
967,13158423.64499401
1206,0.0
2,4, 1, 4, 0, 6, 0.00,60.00,Wednesday
34,13970526.588477325
70,3735673.540023218
222,5108777.048454104
967,13970526.588477325
1206,0.0
2,4, 1, 4, 0, 7, 0.00,60.00,Wednesday
34,21414532.960982037
70,2901503.2420463429
222,5985552.087175781
967,21414532.960982037
1206,84310648.21871163
2,4, 1, 4, 0, 8, 0.00,60.00,Wednesday
34,23811426.943604344
70,5298397.224606365
222,5985552.087175781
967,23811426.943604337
1206,102241254.68699546
2,4, 1, 4, 0, 9, 0.00,60.00,Wednesday
34,35852290.144615959
70,11353708.338442214
222,11971104.174351562
967,35852290.144615959
1206,61285739.464461129
2,4, 1, 4, 0,10, 0.00,60.00,Wednesday
34,35852290.144615959
70,11353708.338442214
222,11971104.174351562
967,35852290.144615959
1206,52872753.968974109
2,4, 1, 4, 0,11, 0.00,60.00,Wednesday
34,35852290.144615959
70,11353708.338442214
222,11971104.174351562
967,35852290.144615959
1206,49208835.68912631
2,4, 1, 4, 0,12, 0.00,60.00,Wednesday
34,33116290.144615957
70,11353708.338442214
222,11971104.174351562
967,33116290.144615957
1206,45368877.80829008
2,4, 1, 4, 0,13, 0.00,60.00,Wednesday
34,30589300.745439065
70,10092185.189726409
222,11252837.923890466
967,30589300.745439069
1206,61089732.77969493
2,4, 1, 4, 0,14, 0.00,60.00,Wednesday
34,32569090.144615957
70,11353708.338442214
222,11971104.174351562
967,32569090.14461596
1206,41510699.73331166
2,4, 1, 4, 0,15, 0.00,60.00,Wednesday
34,33663490.144615959
70,11353708.338442214
222,11971104.174351562
967,33663490.14461596
1206,40333746.77805951
2,4, 1, 4, 0,16, 0.00,60.00,Wednesday
34,35852290.144615959
70,11353708.338442214
222,11971104.174351562
967,35852290.144615959
1206,38906864.95743381
2,4, 1, 4, 0,17, 0.00,60.00,Wednesday
34,35852290.144615959
70,11353708.338442214
222,11971104.174351562
967,35852290.144615959
1206,37622636.47224173
2,4, 1, 4, 0,18, 0.00,60.00,Wednesday
34,26208320.926164368
70,7695291.207166387
222,5985552.087175781
967,26208320.926164356
1206,64973043.079475577
2,4, 1, 4, 0,19, 0.00,60.00,Wednesday
34,20220095.69129887
70,5298397.224606365
222,2394220.834870312
967,20220095.691298866
1206,60093679.88667193
2,4, 1, 4, 0,20, 0.00,60.00,Wednesday
34,13931418.059538957
70,5298397.224606365
222,2394220.834870312
967,13931418.059538952
1206,0.0
2,4, 1, 4, 0,21, 0.00,60.00,Wednesday
34,12669894.910823152
70,4036874.0758905645
222,2394220.834870312
967,12669894.910823152
1206,0.0
2,4, 1, 4, 0,22, 0.00,60.00,Wednesday
34,12669894.910823152
70,4036874.0758905645
222,2394220.834870312
967,12669894.910823152
1206,0.0
2,4, 1, 4, 0,23, 0.00,60.00,Wednesday
34,11534524.076916654
70,2901503.2420463429
222,2394220.834870312
967,11534524.076916654
1206,0.0
2,4, 1, 4, 0,24, 0.00,60.00,Wednesday
34,11205881.415921549
70,2923570.5965399087
222,2043510.819381642
967,11205881.415921549
1206,0.0
2,5, 1, 5, 0, 1, 0.00,60.00,Thursday
34,13158423.644994012
70,2923570.5965399087
222,5108777.048454104
967,13158423.64499401
1206,0.0
2,5, 1, 5, 0, 2, 0.00,60.00,Thursday
34,13158423.644994012
70,2923570.5965399087
222,5108777.048454104
967,13158423.64499401
1206,0.0
2,5, 1, 5, 0, 3, 0.00,60.00,Thursday
34,13158423.644994012
70,2923570.5965399087
222,5108777.048454104
967,13158423.64499401
1206,0.0
2,5, 1, 5, 0, 4, 0.00,60.00,Thursday
34,13158423.644994012
70,2923570.5965399087
222,5108777.048454104
967,13158423.64499401
1206,0.0
2,5, 1, 5, 0, 5, 0.00,60.00,Thursday
34,13158423.644994012
70,2923570.5965399087
222,5108777.048454104
967,13158423.64499401
1206,0.0
2,5, 1, 5, 0, 6, 0.00,60.00,Thursday
34,13970526.588477325
70,3735673.540023218
222,5108777.048454104
967,13970526.588477325
1206,0.0
2,5, 1, 5, 0, 7, 0.00,60.00,Thursday
34,21414532.960982037
70,2901503.2420463429
222,5985552.087175781
967,21414532.960982033
1206,68001771.27025092
2,5, 1, 5, 0, 8, 0.00,60.00,Thursday
34,23811426.943604344
70,5298397.224606365
222,5985552.087175781
967,23811426.943604337
1206,93576313.66308682
2,5, 1, 5, 0, 9, 0.00,60.00,Thursday
34,35852290.144615959
70,11353708.338442214
222,11971104.174351562
967,35852290.144615959
1206,57676200.46693231
2,5, 1, 5, 0,10, 0.00,60.00,Thursday
34,35852290.144615959
70,11353708.338442214
222,11971104.174351562
967,35852290.144615959
1206,54694779.24922313
2,5, 1, 5, 0,11, 0.00,60.00,Thursday
34,35852290.144615959
70,11353708.338442214
222,11971104.174351562
967,35852290.144615959
1206,53325852.305574838
2,5, 1, 5, 0,12, 0.00,60.00,Thursday
34,32569090.144615957
70,11353708.338442214
222,11971104.174351562
967,32569090.14461596
1206,51436072.17189818
2,5, 1, 5, 0,13, 0.00,60.00,Thursday
34,30589300.745439065
70,10092185.189726409
222,11252837.923890466
967,30589300.745439069
1206,70914971.52773845
2,5, 1, 5, 0,14, 0.00,60.00,Thursday
34,32569090.144615957
70,11353708.338442214
222,11971104.174351562
967,32569090.14461596
1206,48280930.24500321
2,5, 1, 5, 0,15, 0.00,60.00,Thursday
34,33663490.144615959
70,11353708.338442214
222,11971104.174351562
967,33663490.14461596
1206,47161777.311406429
2,5, 1, 5, 0,16, 0.00,60.00,Thursday
34,35852290.144615959
70,11353708.338442214
222,11971104.174351562
967,35852290.144615959
1206,46407921.64758733
2,5, 1, 5, 0,17, 0.00,60.00,Thursday
34,35852290.144615959
70,11353708.338442214
222,11971104.174351562
967,35852290.144615959
1206,44763799.42247705
2,5, 1, 5, 0,18, 0.00,60.00,Thursday
34,26208320.926164368
70,7695291.207166387
222,5985552.087175781
967,26208320.926164356
1206,73485615.10502695
2,5, 1, 5, 0,19, 0.00,60.00,Thursday
34,20220095.69129887
70,5298397.224606365
222,2394220.834870312
967,20220095.691298866
1206,66804466.021883908
2,5, 1, 5, 0,20, 0.00,60.00,Thursday
34,13931418.059538957
70,5298397.224606365
222,2394220.834870312
967,13931418.059538952
1206,0.0
2,5, 1, 5, 0,21, 0.00,60.00,Thursday
34,12669894.910823152
70,4036874.0758905645
222,2394220.834870312
967,12669894.910823152
1206,0.0
2,5, 1, 5, 0,22, 0.00,60.00,Thursday
34,12669894.910823152
70,4036874.0758905645
222,2394220.834870312
967,12669894.910823152
1206,0.0
2,5, 1, 5, 0,23, 0.00,60.00,Thursday
34,11534524.076916654
70,2901503.2420463429
222,2394220.834870312
967,11534524.076916654
1206,0.0
2,5, 1, 5, 0,24, 0.00,60.00,Thursday
34,11205881.415921549
70,2923570.5965399087
222,2043510.819381642
967,11205881.415921549
1206,0.0
2,6, 1, 6, 0, 1, 0.00,60.00,Friday
34,13158423.644994012
70,2923570.5965399087
222,5108777.048454104
967,13158423.64499401
1206,0.0
2,6, 1, 6, 0, 2, 0.00,60.00,Friday
34,13158423.644994012
70,2923570.5965399087
222,5108777.048454104
967,13158423.64499401
1206,0.0
2,6, 1, 6, 0, 3, 0.00,60.00,Friday
34,13158423.644994012
70,2923570.5965399087
222,5108777.048454104
967,13158423.64499401
1206,0.0
2,6, 1, 6, 0, 4, 0.00,60.00,Friday
34,13158423.644994012
70,2923570.5965399087
222,5108777.048454104
967,13158423.64499401
1206,0.0
2,6, 1, 6, 0, 5, 0.00,60.00,Friday
34,13158423.644994012
70,2923570.5965399087
222,5108777.048454104
967,13158423.64499401
1206,0.0
2,6, 1, 6, 0, 6, 0.00,60.00,Friday
34,13970526.588477325
70,3735673.540023218
222,5108777.048454104
967,13970526.588477325
1206,0.0
2,6, 1, 6, 0, 7, 0.00,60.00,Friday
34,21414532.960982037
70,2901503.2420463429
222,5985552.087175781
967,21414532.960982033
1206,76299845.14382282
2,6, 1, 6, 0, 8, 0.00,60.00,Friday
34,23811426.943604344
70,5298397.224606365
222,5985552.087175781
967,23811426.943604337
1206,101884358.37063721
2,6, 1, 6, 0, 9, 0.00,60.00,Friday
34,35852290.144615959
70,11353708.338442214
222,11971104.174351562
967,35852290.144615959
1206,65624611.2213915
2,6, 1, 6, 0,10, 0.00,60.00,Friday
34,35852290.144615959
70,11353708.338442214
222,11971104.174351562
967,35852290.144615959
1206,57281032.77621377
2,6, 1, 6, 0,11, 0.00,60.00,Friday
34,35852290.144615959
70,11353708.338442214
222,11971104.174351562
967,35852290.144615959
1206,51607532.05344081
2,6, 1, 6, 0,12, 0.00,60.00,Friday
34,32569090.144615957
70,11353708.338442214
222,11971104.174351562
967,32569090.14461596
1206,46228310.51591806
2,6, 1, 6, 0,13, 0.00,60.00,Friday
34,30589300.745439065
70,10092185.189726409
222,11252837.923890466
967,30589300.745439069
1206,63119441.6072315
2,6, 1, 6, 0,14, 0.00,60.00,Friday
34,32569090.144615957
70,11353708.338442214
222,11971104.174351562
967,32569090.14461596
1206,43740933.80105699
2,6, 1, 6, 0,15, 0.00,60.00,Friday
34,45139173.19611769
70,11353708.338442214
222,11971104.174351562
967,45139173.1961177
1206,16492959.363537852
2,6, 1, 6, 0,16, 0.00,60.00,Friday
34,52133058.94835211
70,11353708.338442214
222,11971104.174351562
967,52133058.94835212
1206,2896327.13166847
2,6, 1, 6, 0,17, 0.00,60.00,Friday
34,51395122.00770853
70,11353708.338442214
222,11971104.174351562
967,51395122.00770853
1206,2070970.7414868517
2,6, 1, 6, 0,18, 0.00,60.00,Friday
34,47281946.37354937
70,7695291.207166387
222,5985552.087175781
967,47281946.37354936
1206,10403254.612813982
2,6, 1, 6, 0,19, 0.00,60.00,Friday
34,39294521.89970784
70,5298397.224606365
222,2394220.834870312
967,39294521.89970783
1206,4359861.02857934
2,6, 1, 6, 0,20, 0.00,60.00,Friday
34,13931418.059538957
70,5298397.224606365
222,2394220.834870312
967,13931418.059538952
1206,0.0
2,6, 1, 6, 0,21, 0.00,60.00,Friday
34,12669894.910823152
70,4036874.0758905645
222,2394220.834870312
967,12669894.910823152
1206,0.0
2,6, 1, 6, 0,22, 0.00,60.00,Friday
34,12669894.910823152
70,4036874.0758905645
222,2394220.834870312
967,12669894.910823152
1206,0.0
2,6, 1, 6, 0,23, 0.00,60.00,Friday
34,11534524.076916654
70,2901503.2420463429
222,2394220.834870312
967,11534524.076916654
1206,0.0
2,6, 1, 6, 0,24, 0.00,60.00,Friday
34,11205881.415921549
70,2923570.5965399087
222,2043510.819381642
967,11205881.415921549
1206,0.0
2,7, 1, 7, 0, 1, 0.00,60.00,Saturday
34,10093157.415921549
70,2923570.5965399087
222,2043510.819381642
967,10093157.415921549
1206,0.0
2,7, 1, 7, 0, 2, 0.00,60.00,Saturday
34,10093157.415921549
70,2923570.5965399087
222,2043510.819381642
967,10093157.415921549
1206,0.0
2,7, 1, 7, 0, 3, 0.00,60.00,Saturday
34,10093157.415921549
70,2923570.5965399087
222,2043510.819381642
967,10093157.415921549
1206,0.0
2,7, 1, 7, 0, 4, 0.00,60.00,Saturday
34,10093157.415921549
70,2923570.5965399087
222,2043510.819381642
967,10093157.415921549
1206,0.0
2,7, 1, 7, 0, 5, 0.00,60.00,Saturday
34,10093157.415921549
70,2923570.5965399087
222,2043510.819381642
967,10093157.415921549
1206,0.0
2,7, 1, 7, 0, 6, 0.00,60.00,Saturday
34,10093157.415921549
70,2923570.5965399087
222,2043510.819381642
967,10093157.415921549
1206,0.0
2,7, 1, 7, 0, 7, 0.00,60.00,Saturday
34,11205881.415921549
70,2923570.5965399087
222,2043510.819381642
967,11205881.415921549
1206,0.0
2,7, 1, 7, 0, 8, 0.00,60.00,Saturday
34,11205881.415921549
70,2923570.5965399087
222,2043510.819381642
967,11205881.415921549
1206,0.0
2,7, 1, 7, 0, 9, 0.00,60.00,Saturday
34,11205881.415921549
70,2923570.5965399087
222,2043510.819381642
967,11205881.415921549
1206,0.0
2,7, 1, 7, 0,10, 0.00,60.00,Saturday
34,11205881.415921549
70,2923570.5965399087
222,2043510.819381642
967,11205881.415921549
1206,0.0
2,7, 1, 7, 0,11, 0.00,60.00,Saturday
34,11205881.415921549
70,2923570.5965399087
222,2043510.819381642
967,11205881.415921549
1206,0.0
2,7, 1, 7, 0,12, 0.00,60.00,Saturday
34,7922681.415921549
70,2923570.5965399087
222,2043510.819381642
967,7922681.415921549
1206,0.0
2,7, 1, 7, 0,13, 0.00,60.00,Saturday
34,7922681.415921549
70,2923570.5965399087
222,2043510.819381642
967,7922681.415921549
1206,0.0
2,7, 1, 7, 0,14, 0.00,60.00,Saturday
34,7922681.415921549
70,2923570.5965399087
222,2043510.819381642
967,7922681.415921549
1206,0.0
2,7, 1, 7, 0,15, 0.00,60.00,Saturday
34,8469881.415921549
70,2923570.5965399087
222,2043510.819381642
967,8469881.415921549
1206,0.0
2,7, 1, 7, 0,16, 0.00,60.00,Saturday
34,11205881.415921549
70,2923570.5965399087
222,2043510.819381642
967,11205881.415921549
1206,0.0
2,7, 1, 7, 0,17, 0.00,60.00,Saturday
34,11205881.415921549
70,2923570.5965399087
222,2043510.819381642
967,11205881.415921549
1206,0.0
2,7, 1, 7, 0,18, 0.00,60.00,Saturday
34,11205881.415921549
70,2923570.5965399087
222,2043510.819381642
967,11205881.415921549
1206,0.0
2,7, 1, 7, 0,19, 0.00,60.00,Saturday
34,11205881.415921549
70,2923570.5965399087
222,2043510.819381642
967,11205881.415921549
1206,0.0
2,7, 1, 7, 0,20, 0.00,60.00,Saturday
34,11205881.415921549
70,2923570.5965399087
222,2043510.819381642
967,11205881.415921549
1206,0.0
2,7, 1, 7, 0,21, 0.00,60.00,Saturday
34,11205881.415921549
70,2923570.5965399087
222,2043510.819381642
967,11205881.415921549
1206,0.0
2,7, 1, 7, 0,22, 0.00,60.00,Saturday
34,11205881.415921549
70,2923570.5965399087
222,2043510.819381642
967,11205881.415921549
1206,0.0
2,7, 1, 7, 0,23, 0.00,60.00,Saturday
34,11205881.415921549
70,2923570.5965399087
222,2043510.819381642
967,11205881.415921549
1206,0.0
2,7, 1, 7, 0,24, 0.00,60.00,Saturday
34,11205881.415921549
70,2923570.5965399087
222,2043510.819381642
967,11205881.415921549
1206,0.0
2,8, 1, 8, 0, 1, 0.00,60.00,Sunday
34,10093157.415921549
70,2923570.5965399087
222,2043510.819381642
967,10093157.415921549
1206,0.0
2,8, 1, 8, 0, 2, 0.00,60.00,Sunday
34,10093157.415921549
70,2923570.5965399087
222,2043510.819381642
967,10093157.415921549
1206,0.0
2,8, 1, 8, 0, 3, 0.00,60.00,Sunday
34,10663222.316925994
70,2923570.5965399087
222,2043510.819381642
967,10663222.316925994
1206,487980.8573834032
2,8, 1, 8, 0, 4, 0.00,60.00,Sunday
34,11364323.712495048
70,2923570.5965399087
222,2043510.819381642
967,11364323.712495048
1206,955944.1093615305
2,8, 1, 8, 0, 5, 0.00,60.00,Sunday
34,10320678.569055515
70,2923570.5965399087
222,2043510.819381642
967,10320678.569055515
1206,644242.5597670965
2,8, 1, 8, 0, 6, 0.00,60.00,Sunday
34,10093157.415921549
70,2923570.5965399087
222,2043510.819381642
967,10093157.415921549
1206,0.0
2,8, 1, 8, 0, 7, 0.00,60.00,Sunday
34,11205881.415921549
70,2923570.5965399087
222,2043510.819381642
967,11205881.415921549
1206,0.0
2,8, 1, 8, 0, 8, 0.00,60.00,Sunday
34,13355896.159040802
70,2923570.5965399087
222,2043510.819381642
967,13355896.159040798
1206,3262734.7632111276
2,8, 1, 8, 0, 9, 0.00,60.00,Sunday
34,14287775.978967956
70,2923570.5965399087
222,2043510.819381642
967,14287775.978967956
1206,4388533.48643369
2,8, 1, 8, 0,10, 0.00,60.00,Sunday
34,12830949.632687416
70,2923570.5965399087
222,2043510.819381642
967,12830949.632687416
1206,2665784.8172321945
2,8, 1, 8, 0,11, 0.00,60.00,Sunday
34,13966387.775835716
70,2923570.5965399087
222,2043510.819381642
967,13966387.775835716
1206,4548535.946128341
2,8, 1, 8, 0,12, 0.00,60.00,Sunday
34,10326538.429366524
70,2856543.3480643986
222,2043510.819381642
967,10326538.429366524
1206,4047206.7313790444
2,8, 1, 8, 0,13, 0.00,60.00,Sunday
34,11534797.768130659
70,2923570.5965399087
222,2043510.819381642
967,11534797.768130659
1206,5630120.6544158379
2,8, 1, 8, 0,14, 0.00,60.00,Sunday
34,9692603.510589377
70,2923570.5965399087
222,2043510.819381642
967,9692603.510589377
1206,2861965.051297873
2,8, 1, 8, 0,15, 0.00,60.00,Sunday
34,10427840.97477616
70,2923570.5965399087
222,2043510.819381642
967,10427840.97477616
1206,3373512.0576618465
2,8, 1, 8, 0,16, 0.00,60.00,Sunday
34,13671499.428793502
70,2923570.5965399087
222,2043510.819381642
967,13671499.428793498
1206,3757341.634455402
2,8, 1, 8, 0,17, 0.00,60.00,Sunday
34,12792781.645240888
70,2923570.5965399087
222,2043510.819381642
967,12792781.645240888
1206,1250085.8489375208
2,8, 1, 8, 0,18, 0.00,60.00,Sunday
34,13764665.872753865
70,2923570.5965399087
222,2043510.819381642
967,13764665.87275386
1206,3980762.0404274195
2,8, 1, 8, 0,19, 0.00,60.00,Sunday
34,13384970.34958274
70,2923570.5965399087
222,2043510.819381642
967,13384970.34958274
1206,3250989.002041819
2,8, 1, 8, 0,20, 0.00,60.00,Sunday
34,12831228.010580218
70,2923570.5965399087
222,2043510.819381642
967,12831228.010580218
1206,1657597.1060862337
2,8, 1, 8, 0,21, 0.00,60.00,Sunday
34,14332589.301205365
70,2923570.5965399087
222,2043510.819381642
967,14332589.301205364
1206,4467706.794546147
2,8, 1, 8, 0,22, 0.00,60.00,Sunday
34,14035036.978827766
70,2923570.5965399087
222,2043510.819381642
967,14035036.978827762
1206,3457416.6439417579
2,8, 1, 8, 0,23, 0.00,60.00,Sunday
34,13007666.727298137
70,2923570.5965399087
222,2043510.819381642
967,13007666.727298137
1206,2331438.9900873096
2,8, 1, 8, 0,24, 0.00,60.00,Sunday
34,14678087.781175247
70,2923570.5965399087
222,2043510.819381642
967,14678087.781175243
1206,5835482.601211022
2,9, 1, 9, 0, 1, 0.00,60.00,Monday
34,16158828.89582228
70,2923570.5965399087
222,5108777.048454104
967,16158828.89582228
1206,3915867.8502888807
2,9, 1, 9, 0, 2, 0.00,60.00,Monday
34,14528623.974753648
70,2923570.5965399087
222,5108777.048454104
967,14528623.974753648
1206,2398085.295993545
2,9, 1, 9, 0, 3, 0.00,60.00,Monday
34,13158423.644994012
70,2923570.5965399087
222,5108777.048454104
967,13158423.64499401
1206,0.0
2,9, 1, 9, 0, 4, 0.00,60.00,Monday
34,15107927.396039892
70,2923570.5965399087
222,5108777.048454104
967,15107927.396039892
1206,2333273.1593852636
2,9, 1, 9, 0, 5, 0.00,60.00,Monday
34,15428194.887020857
70,2923570.5965399087
222,5108777.048454104
967,15428194.887020857
1206,3164926.465859223
2,9, 1, 9, 0, 6, 0.00,60.00,Monday
34,15320595.815432495
70,3735673.540023218
222,5108777.048454104
967,15320595.81543249
1206,1124000.1829140252
2,9, 1, 9, 0, 7, 0.00,60.00,Monday
34,21414532.960982037
70,2901503.2420463429
222,5985552.087175781
967,21414532.960982037
1206,98034887.5572088
2,9, 1, 9, 0, 8, 0.00,60.00,Monday
34,23811426.943604344
70,5298397.224606365
222,5985552.087175781
967,23811426.943604337
1206,117681709.83979225
2,9, 1, 9, 0, 9, 0.00,60.00,Monday
34,35852290.144615959
70,11353708.338442214
222,11971104.174351562
967,35852290.144615959
1206,81332398.54561997
2,9, 1, 9, 0,10, 0.00,60.00,Monday
34,35852290.144615959
70,11353708.338442214
222,11971104.174351562
967,35852290.144615959
1206,72010371.27858636
2,9, 1, 9, 0,11, 0.00,60.00,Monday
34,35280939.2178719
70,11329557.411698157
222,11971104.174351562
967,35280939.2178719
1206,68222651.1691696
2,9, 1, 9, 0,12, 0.00,60.00,Monday
34,32256259.595131056
70,11040877.788957309
222,11971104.174351562
967,32256259.59513106
1206,63275298.007657337
2,9, 1, 9, 0,13, 0.00,60.00,Monday