Program Version,EnergyPlus, Version 9.0.1-bb7ca4f0da, YMD=2019.03.13 17:18
1,5,Environment Title[],Latitude[deg],Longitude[deg],Time Zone[],Elevation[m]
2,8,Day of Simulation[],Month[],Day of Month[],DST Indicator[1=yes 0=no],Hour[],StartMinute[],EndMinute[],DayType
3,5,Cumulative Day of Simulation[],Month[],Day of Month[],DST Indicator[1=yes 0=no],DayType  ! When Daily Meters Requested
4,2,Cumulative Days of Simulation[],Month[]  ! When Monthly Meters Requested
5,1,Cumulative Days of Simulation[] ! When Run Period Meters Requested
6,1,Calendar Year of Simulation[] ! When Annual Meters Requested
70,1,InteriorLights:Electricity [J] !Hourly
222,1,InteriorEquipment:Electricity [J] !Hourly
34,1,Electricity:Facility [J] !Hourly
967,1,ElectricityNet:Facility [J] !Hourly
1206,1,Gas:Facility [J] !Hourly
End of Data Dictionary
1,RUNPERIOD 1,  33.63, -84.43,  -5.00, 308.00
2,1, 1, 1, 0, 1, 0.00,60.00,Holiday
34,9193157.415921549
70,2923570.5965399087
222,2043510.819381642
967,9193157.415921549
1206,0.0
2,1, 1, 1, 0, 2, 0.00,60.00,Holiday
34,9193157.415921549
70,2923570.5965399087
222,2043510.819381642
967,9193157.415921549
1206,0.0
2,1, 1, 1, 0, 3, 0.00,60.00,Holiday
34,9193157.415921549
70,2923570.5965399087
222,2043510.819381642
967,9193157.415921549
1206,0.0
2,1, 1, 1, 0, 4, 0.00,60.00,Holiday
34,9193157.415921549
70,2923570.5965399087
222,2043510.819381642
967,9193157.415921549
1206,0.0
2,1, 1, 1, 0, 5, 0.00,60.00,Holiday
34,9193157.415921549
70,2923570.5965399087
222,2043510.819381642
967,9193157.415921549
1206,0.0
2,1, 1, 1, 0, 6, 0.00,60.00,Holiday
34,9193157.415921549
70,2923570.5965399087
222,2043510.819381642
967,9193157.415921549
1206,0.0
2,1, 1, 1, 0, 7, 0.00,60.00,Holiday
34,10305881.415921549
70,2923570.5965399087
222,2043510.819381642
967,10305881.415921549
1206,0.0
2,1, 1, 1, 0, 8, 0.00,60.00,Holiday
34,9211481.415921549
70,2923570.5965399087
222,2043510.819381642
967,9211481.415921549
1206,0.0
2,1, 1, 1, 0, 9, 0.00,60.00,Holiday
34,7008903.136695775
70,2909792.317314135
222,2043510.819381642
967,7008903.136695775
1206,0.0
2,1, 1, 1, 0,10, 0.00,60.00,Holiday
34,6878009.6262443349
70,2778898.8068626949
222,2043510.819381642
967,6878009.6262443349
1206,0.0
2,1, 1, 1, 0,11, 0.00,60.00,Holiday
34,6830455.944714118
70,2731345.125332476
222,2043510.819381642
967,6830455.944714118
1206,0.0
2,1, 1, 1, 0,12, 0.00,60.00,Holiday
34,6679191.134390638
70,2580080.315008998
222,2043510.819381642
967,6679191.134390638
1206,0.0
2,1, 1, 1, 0,13, 0.00,60.00,Holiday
34,6786890.181413619
70,2687779.3620319787
222,2043510.819381642
967,6786890.181413618
1206,0.0
2,1, 1, 1, 0,14, 0.00,60.00,Holiday
34,6829638.909327518
70,2730528.089945878
222,2043510.819381642
967,6829638.909327516
1206,0.0
2,1, 1, 1, 0,15, 0.00,60.00,Holiday
34,6820990.799904757
70,2721879.980523117
222,2043510.819381642
967,6820990.799904756
1206,0.0
2,1, 1, 1, 0,16, 0.00,60.00,Holiday
34,6936099.902960599
70,2836989.0835789598
222,2043510.819381642
967,6936099.902960599
1206,0.0
2,1, 1, 1, 0,17, 0.00,60.00,Holiday
34,7022681.415921549
70,2923570.5965399087
222,2043510.819381642
967,7022681.415921548
1206,0.0
2,1, 1, 1, 0,18, 0.00,60.00,Holiday
34,8664281.415921549
70,2923570.5965399087
222,2043510.819381642
967,8664281.415921549
1206,0.0
2,1, 1, 1, 0,19, 0.00,60.00,Holiday
34,10305881.415921549
70,2923570.5965399087
222,2043510.819381642
967,10305881.415921549
1206,0.0
2,1, 1, 1, 0,20, 0.00,60.00,Holiday
34,10305881.415921549
70,2923570.5965399087
222,2043510.819381642
967,10305881.415921549
1206,0.0
2,1, 1, 1, 0,21, 0.00,60.00,Holiday
34,10305881.415921549
70,2923570.5965399087
222,2043510.819381642
967,10305881.415921549
1206,0.0
2,1, 1, 1, 0,22, 0.00,60.00,Holiday
34,10305881.415921549
70,2923570.5965399087
222,2043510.819381642
967,10305881.415921549
1206,0.0
2,1, 1, 1, 0,23, 0.00,60.00,Holiday
34,10305881.415921549
70,2923570.5965399087
222,2043510.819381642
967,10305881.415921549
1206,0.0
2,1, 1, 1, 0,24, 0.00,60.00,Holiday
34,10305881.415921549
70,2923570.5965399087
222,2043510.819381642
967,10305881.415921549
1206,0.0
2,2, 1, 2, 0, 1, 0.00,60.00,Monday
34,13158423.644994012
70,2923570.5965399087
222,5108777.048454104
967,13158423.64499401
1206,0.0
2,2, 1, 2, 0, 2, 0.00,60.00,Monday
34,13158423.644994012
70,2923570.5965399087
222,5108777.048454104
967,13158423.64499401
1206,0.0
2,2, 1, 2, 0, 3, 0.00,60.00,Monday
34,13158423.644994012
70,2923570.5965399087
222,5108777.048454104
967,13158423.64499401
1206,0.0
2,2, 1, 2, 0, 4, 0.00,60.00,Monday
34,13158423.644994012
70,2923570.5965399087
222,5108777.048454104
967,13158423.64499401
1206,0.0
2,2, 1, 2, 0, 5, 0.00,60.00,Monday
34,13158423.644994012
70,2923570.5965399087
222,5108777.048454104
967,13158423.64499401
1206,0.0
2,2, 1, 2, 0, 6, 0.00,60.00,Monday
34,13970526.588477325
70,3735673.540023218
222,5108777.048454104
967,13970526.588477325
1206,0.0
2,2, 1, 2, 0, 7, 0.00,60.00,Monday
34,36837984.69257243
70,2901503.2420463429
222,5985552.087175781
967,36837984.69257243
1206,4125423.1629766437
2,2, 1, 2, 0, 8, 0.00,60.00,Monday
34,36995239.153806138
70,5298397.224606365
222,5985552.087175781
967,36995239.153806138
1206,608108.1470926325
2,2, 1, 2, 0, 9, 0.00,60.00,Monday
34,37808781.633558537
70,11246692.237021439
222,11971104.174351562
967,37808781.63355853
1206,0.0
2,2, 1, 2, 0,10, 0.00,60.00,Monday
34,34491618.37769633
70,10651273.258967445
222,11971104.174351562
967,34491618.37769632
1206,0.0
2,2, 1, 2, 0,11, 0.00,60.00,Monday
34,32218133.830506106
70,10158452.369613216
222,11971104.174351562
967,32218133.8305061
1206,0.0
2,2, 1, 2, 0,12, 0.00,60.00,Monday
34,30400654.660602284
70,9811819.054472585
222,11971104.174351562
967,30400654.66060227
1206,0.0
2,2, 1, 2, 0,13, 0.00,60.00,Monday
34,29643774.056341959
70,8738498.17529944
222,11252837.923890466
967,29643774.056341959
1206,0.0
2,2, 1, 2, 0,14, 0.00,60.00,Monday
34,29719397.47197771
70,9830022.262710602
222,11971104.174351562
967,29719397.471977705
1206,0.0
2,2, 1, 2, 0,15, 0.00,60.00,Monday
34,29947737.519350076
70,10058362.310082972
222,11971104.174351562
967,29947737.519350068
1206,0.0
2,2, 1, 2, 0,16, 0.00,60.00,Monday
34,30795286.228003175
70,10905911.018736065
222,11971104.174351562
967,30795286.228003164
1206,0.0
2,2, 1, 2, 0,17, 0.00,60.00,Monday
34,31082559.39557816
70,11193184.186311055
222,11971104.174351562
967,31082559.395578159
1206,0.0
2,2, 1, 2, 0,18, 0.00,60.00,Monday
34,26323475.31426422
70,7695291.207166387
222,5985552.087175781
967,26323475.314264224
1206,0.0
2,2, 1, 2, 0,19, 0.00,60.00,Monday
34,22630710.463478235
70,5298397.224606365
222,2394220.834870312
967,22630710.463478235
1206,0.0
2,2, 1, 2, 0,20, 0.00,60.00,Monday
34,13031418.059538957
70,5298397.224606365
222,2394220.834870312
967,13031418.059538952
1206,0.0
2,2, 1, 2, 0,21, 0.00,60.00,Monday
34,11769894.910823154
70,4036874.0758905645
222,2394220.834870312
967,11769894.910823152
1206,0.0
2,2, 1, 2, 0,22, 0.00,60.00,Monday
34,11769894.910823154
70,4036874.0758905645
222,2394220.834870312
967,11769894.910823152
1206,0.0
2,2, 1, 2, 0,23, 0.00,60.00,Monday
34,10634524.076916654
70,2901503.2420463429
222,2394220.834870312
967,10634524.076916654
1206,0.0
2,2, 1, 2, 0,24, 0.00,60.00,Monday
34,10305881.415921549
70,2923570.5965399087
222,2043510.819381642
967,10305881.415921549
1206,0.0
2,3, 1, 3, 0, 1, 0.00,60.00,Tuesday
34,12258423.644994012
70,2923570.5965399087
222,5108777.048454104
967,12258423.644994012
1206,0.0
2,3, 1, 3, 0, 2, 0.00,60.00,Tuesday
34,12258423.644994012
70,2923570.5965399087
222,5108777.048454104
967,12258423.644994012
1206,0.0
2,3, 1, 3, 0, 3, 0.00,60.00,Tuesday
34,12258423.644994012
70,2923570.5965399087
222,5108777.048454104
967,12258423.644994012
1206,0.0
2,3, 1, 3, 0, 4, 0.00,60.00,Tuesday
34,13158423.644994012
70,2923570.5965399087
222,5108777.048454104
967,13158423.64499401
1206,0.0
2,3, 1, 3, 0, 5, 0.00,60.00,Tuesday
34,13158423.644994012
70,2923570.5965399087
222,5108777.048454104
967,13158423.64499401
1206,0.0
2,3, 1, 3, 0, 6, 0.00,60.00,Tuesday
34,13970526.588477325
70,3735673.540023218
222,5108777.048454104
967,13970526.588477325
1206,0.0
2,3, 1, 3, 0, 7, 0.00,60.00,Tuesday
34,35243859.21567519
70,2901503.2420463429
222,5985552.087175781
967,35243859.2156752
1206,2918167.632766395
2,3, 1, 3, 0, 8, 0.00,60.00,Tuesday
34,35965001.19311534
70,5298397.224606365
222,5985552.087175781
967,35965001.19311533
1206,127057.00156654325
2,3, 1, 3, 0, 9, 0.00,60.00,Tuesday
34,37966330.90337721
70,11353708.338442214
222,11971104.174351562
967,37966330.903377208
1206,0.0
2,3, 1, 3, 0,10, 0.00,60.00,Tuesday
34,37130792.4005992
70,11159599.188506943
222,11971104.174351562
967,37130792.40059918
1206,0.0
2,3, 1, 3, 0,11, 0.00,60.00,Tuesday
34,36300107.92389468
70,11004281.233598054
222,11971104.174351562
967,36300107.92389468
1206,0.0
2,3, 1, 3, 0,12, 0.00,60.00,Tuesday
34,35278159.64574312
70,10786999.480303217
222,11971104.174351562
967,35278159.64574312
1206,0.0
2,3, 1, 3, 0,13, 0.00,60.00,Tuesday
34,36976561.49393365
70,9494425.26982384
222,11252837.923890466
967,36976561.49393364
1206,0.0
2,3, 1, 3, 0,14, 0.00,60.00,Tuesday
34,34158506.02303843
70,10604026.316265492
222,11971104.174351562
967,34158506.023038428
1206,0.0
2,3, 1, 3, 0,15, 0.00,60.00,Tuesday
34,33633454.10441424
70,10530595.212648832
222,11971104.174351562
967,33633454.10441423
1206,0.0
2,3, 1, 3, 0,16, 0.00,60.00,Tuesday
34,33103108.777788745
70,10477087.161938444
222,11971104.174351562
967,33103108.777788737
1206,0.0
2,3, 1, 3, 0,17, 0.00,60.00,Tuesday
34,34085900.674676548
70,11300200.287731827
222,11971104.174351562
967,34085900.674676548
1206,0.0
2,3, 1, 3, 0,18, 0.00,60.00,Tuesday
34,32730344.021886689
70,7695291.207166387
222,5985552.087175781
967,32730344.021886685
1206,0.0
2,3, 1, 3, 0,19, 0.00,60.00,Tuesday
34,28203247.547996619
70,5298397.224606365
222,2394220.834870312
967,28203247.547996619
1206,0.0
2,3, 1, 3, 0,20, 0.00,60.00,Tuesday
34,13931418.059538957
70,5298397.224606365
222,2394220.834870312
967,13931418.059538952
1206,0.0
2,3, 1, 3, 0,21, 0.00,60.00,Tuesday
34,12669894.910823152
70,4036874.0758905645
222,2394220.834870312
967,12669894.910823152
1206,0.0
2,3, 1, 3, 0,22, 0.00,60.00,Tuesday
34,12669894.910823152
70,4036874.0758905645
222,2394220.834870312
967,12669894.910823152
1206,0.0
2,3, 1, 3, 0,23, 0.00,60.00,Tuesday
34,11534524.076916654
70,2901503.2420463429
222,2394220.834870312
967,11534524.076916654
1206,0.0
2,3, 1, 3, 0,24, 0.00,60.00,Tuesday
34,11205881.415921549
70,2923570.5965399087
222,2043510.819381642
967,11205881.415921549
1206,0.0
2,4, 1, 4, 0, 1, 0.00,60.00,Wednesday
34,13158423.644994012
70,2923570.5965399087
222,5108777.048454104
967,13158423.64499401
1206,0.0
2,4, 1, 4, 0, 2, 0.00,60.00,Wednesday
34,13158423.644994012
70,2923570.5965399087
222,5108777.048454104
967,13158423.64499401
1206,0.0
2,4, 1, 4, 0, 3, 0.00,60.00,Wednesday
34,13158423.644994012
70,2923570.5965399087
222,5108777.048454104
967,13158423.64499401
1206,0.0
2,4, 1, 4, 0, 4, 0.00,60.00,Wednesday
34,13158423.644994012
70,2923570.5965399087
222,5108777.048454104
967,13158423.64499401
1206,0.0
2,4, 1, 4, 0, 5, 0.00,60.00,Wednesday
34,13158423.644994012
70,2923570.5965399087
222,5108777.048454104
967,13158423.64499401
1206,0.0
2,4, 1, 4, 0, 6, 0.00,60.00,Wednesday
34,13970526.588477325
70,3735673.540023218
222,5108777.048454104
967,13970526.588477325
1206,0.0
2,4, 1, 4, 0, 7, 0.00,60.00,Wednesday
34,35615966.49968965
70,2901503.2420463429
222,5985552.087175781
967,35615966.49968966
1206,3064378.1225530675
2,4, 1, 4, 0, 8, 0.00,60.00,Wednesday
34,35622087.808085609
70,5298397.224606365
222,5985552.087175781
967,35622087.808085609
1206,0.0
2,4, 1, 4, 0, 9, 0.00,60.00,Wednesday
34,36719633.208497349
70,10955676.794163522
222,11971104.174351562
967,36719633.208497349
1206,0.0
2,4, 1, 4, 0,10, 0.00,60.00,Wednesday
34,33511224.452817337
70,10229471.065711132
222,11971104.174351562
967,33511224.452817326
1206,0.0
2,4, 1, 4, 0,11, 0.00,60.00,Wednesday
34,31688365.46660723
70,9943252.808922308
222,11971104.174351562
967,31688365.466607229
1206,0.0
2,4, 1, 4, 0,12, 0.00,60.00,Wednesday
34,30403284.28140772
70,9933865.401079754
222,11971104.174351562
967,30403284.281407715
1206,0.0
2,4, 1, 4, 0,13, 0.00,60.00,Wednesday
34,29097146.786425875
70,8780605.01380711
222,11252837.923890466
967,29097146.786425875
1206,0.0
2,4, 1, 4, 0,14, 0.00,60.00,Wednesday
34,29742698.038953417
70,9848225.47094862
222,11971104.174351562
967,29742698.03895341
1206,0.0
2,4, 1, 4, 0,15, 0.00,60.00,Wednesday
34,29830119.989019883
70,9940744.77975278
222,11971104.174351562
967,29830119.98901988
1206,0.0
2,4, 1, 4, 0,16, 0.00,60.00,Wednesday
34,29990928.797266704
70,10101553.587999596
222,11971104.174351562
967,29990928.797266697
1206,0.0
2,4, 1, 4, 0,17, 0.00,60.00,Wednesday
34,30561960.04647592
70,10672584.837208815
222,11971104.174351562
967,30561960.046475918
1206,0.0
2,4, 1, 4, 0,18, 0.00,60.00,Wednesday
34,26981368.18990643
70,7695291.207166387
222,5985552.087175781
967,26981368.189906435
1206,0.0
2,4, 1, 4, 0,19, 0.00,60.00,Wednesday
34,23655443.857218148
70,5298397.224606365
222,2394220.834870312
967,23655443.857218144
1206,0.0
2,4, 1, 4, 0,20, 0.00,60.00,Wednesday
34,13931418.059538957
70,5298397.224606365
222,2394220.834870312
967,13931418.059538952
1206,0.0
2,4, 1, 4, 0,21, 0.00,60.00,Wednesday
34,12669894.910823152
70,4036874.0758905645
222,2394220.834870312
967,12669894.910823152
1206,0.0
2,4, 1, 4, 0,22, 0.00,60.00,Wednesday
34,12669894.910823152
70,4036874.0758905645
222,2394220.834870312
967,12669894.910823152
1206,0.0
2,4, 1, 4, 0,23, 0.00,60.00,Wednesday
34,11534524.076916654
70,2901503.2420463429
222,2394220.834870312
967,11534524.076916654
1206,0.0
2,4, 1, 4, 0,24, 0.00,60.00,Wednesday
34,11205881.415921549
70,2923570.5965399087
222,2043510.819381642
967,11205881.415921549
1206,0.0
2,5, 1, 5, 0, 1, 0.00,60.00,Thursday
34,13158423.644994012
70,2923570.5965399087
222,5108777.048454104
967,13158423.64499401
1206,0.0
2,5, 1, 5, 0, 2, 0.00,60.00,Thursday
34,13158423.644994012
70,2923570.5965399087
222,5108777.048454104
967,13158423.64499401
1206,0.0
2,5, 1, 5, 0, 3, 0.00,60.00,Thursday
34,13158423.644994012
70,2923570.5965399087
222,5108777.048454104
967,13158423.64499401
1206,0.0
2,5, 1, 5, 0, 4, 0.00,60.00,Thursday
34,13158423.644994012
70,2923570.5965399087
222,5108777.048454104
967,13158423.64499401
1206,0.0
2,5, 1, 5, 0, 5, 0.00,60.00,Thursday
34,13158423.644994012
70,2923570.5965399087
222,5108777.048454104
967,13158423.64499401
1206,0.0
2,5, 1, 5, 0, 6, 0.00,60.00,Thursday
34,13970526.588477325
70,3735673.540023218
222,5108777.048454104
967,13970526.588477325
1206,0.0
2,5, 1, 5, 0, 7, 0.00,60.00,Thursday
34,42474124.20040838
70,2901503.2420463429
222,5985552.087175781
967,42474124.20040838
1206,19117438.336762433
2,5, 1, 5, 0, 8, 0.00,60.00,Thursday
34,41655517.527589838
70,5298397.224606365
222,5985552.087175781
967,41655517.52758984
1206,15793006.746734156
2,5, 1, 5, 0, 9, 0.00,60.00,Thursday
34,42932729.1666269
70,10710473.105454954
222,11971104.174351562
967,42932729.1666269
1206,0.0
2,5, 1, 5, 0,10, 0.00,60.00,Thursday
34,38772633.17676386
70,10269317.17152368
222,11971104.174351562
967,38772633.17676386
1206,0.0
2,5, 1, 5, 0,11, 0.00,60.00,Thursday
34,35281719.26391609
70,10236995.153219711
222,11971104.174351562
967,35281719.26391609
1206,0.0
2,5, 1, 5, 0,12, 0.00,60.00,Thursday
34,33875751.74302052
70,10294397.463218946
222,11971104.174351562
967,33875751.74302051
1206,0.0
2,5, 1, 5, 0,13, 0.00,60.00,Thursday
34,34336999.24966509
70,9265749.242075284
222,11252837.923890466
967,34336999.24966508
1206,0.0
2,5, 1, 5, 0,14, 0.00,60.00,Thursday
34,32373551.07029943
70,10379105.733183094
222,11971104.174351562
967,32373551.070299426
1206,0.0
2,5, 1, 5, 0,15, 0.00,60.00,Thursday
34,31585970.82543692
70,10171088.13711163
222,11971104.174351562
967,31585970.825436914
1206,0.0
2,5, 1, 5, 0,16, 0.00,60.00,Thursday
34,31361993.516440296
70,10006004.791809529
222,11971104.174351562
967,31361993.51644029
1206,0.0
2,5, 1, 5, 0,17, 0.00,60.00,Thursday
34,32087195.254314998
70,10371365.068620332
222,11971104.174351562
967,32087195.254314986
1206,0.0
2,5, 1, 5, 0,18, 0.00,60.00,Thursday
34,32640085.743551919
70,7608398.649794624
222,5985552.087175781
967,32640085.743551919
1206,22071.295658417428
2,5, 1, 5, 0,19, 0.00,60.00,Thursday
34,29452701.6740872
70,5298397.224606365
222,2394220.834870312
967,29452701.674087205
1206,0.0
2,5, 1, 5, 0,20, 0.00,60.00,Thursday
34,13931418.059538957
70,5298397.224606365
222,2394220.834870312
967,13931418.059538952
1206,0.0
2,5, 1, 5, 0,21, 0.00,60.00,Thursday
34,12669894.910823152
70,4036874.0758905645
222,2394220.834870312
967,12669894.910823152
1206,0.0
2,5, 1, 5, 0,22, 0.00,60.00,Thursday
34,12669894.910823152
70,4036874.0758905645
222,2394220.834870312
967,12669894.910823152
1206,0.0
2,5, 1, 5, 0,23, 0.00,60.00,Thursday
34,11534524.076916654
70,2901503.2420463429
222,2394220.834870312
967,11534524.076916654
1206,0.0
2,5, 1, 5, 0,24, 0.00,60.00,Thursday
34,11205881.415921549
70,2923570.5965399087
222,2043510.819381642
967,11205881.415921549
1206,0.0
2,6, 1, 6, 0, 1, 0.00,60.00,Friday
34,13158423.644994012
70,2923570.5965399087
222,5108777.048454104
967,13158423.64499401
1206,0.0
2,6, 1, 6, 0, 2, 0.00,60.00,Friday
34,13158423.644994012
70,2923570.5965399087
222,5108777.048454104
967,13158423.64499401
1206,0.0
2,6, 1, 6, 0, 3, 0.00,60.00,Friday
34,13158423.644994012
70,2923570.5965399087
222,5108777.048454104
967,13158423.64499401
1206,0.0
2,6, 1, 6, 0, 4, 0.00,60.00,Friday
34,13158423.644994012
70,2923570.5965399087
222,5108777.048454104
967,13158423.64499401
1206,0.0
2,6, 1, 6, 0, 5, 0.00,60.00,Friday
34,13158423.644994012
70,2923570.5965399087
222,5108777.048454104
967,13158423.64499401
1206,0.0
2,6, 1, 6, 0, 6, 0.00,60.00,Friday
34,13970526.588477325
70,3735673.540023218
222,5108777.048454104
967,13970526.588477325
1206,0.0
2,6, 1, 6, 0, 7, 0.00,60.00,Friday
34,43372919.527016159
70,2901503.2420463429
222,5985552.087175781
967,43372919.52701616
1206,30006342.523882957
2,6, 1, 6, 0, 8, 0.00,60.00,Friday
34,43235218.92227638
70,5298397.224606365
222,5985552.087175781
967,43235218.92227638
1206,21546240.89934236
2,6, 1, 6, 0, 9, 0.00,60.00,Friday
34,46121124.335023868
70,10935278.946258374
222,11971104.174351562
967,46121124.335023868
1206,0.0
2,6, 1, 6, 0,10, 0.00,60.00,Friday
34,42590339.720733027
70,10169036.973110216
222,11971104.174351562
967,42590339.720733027
1206,0.0
2,6, 1, 6, 0,11, 0.00,60.00,Friday
34,40327725.48714839
70,9978652.168627114
222,11971104.174351562
967,40327725.48714838
1206,0.0
2,6, 1, 6, 0,12, 0.00,60.00,Friday
34,38474239.298783149
70,9904479.543726685
222,11971104.174351562
967,38474239.29878314
1206,0.0
2,6, 1, 6, 0,13, 0.00,60.00,Friday
34,40640043.25442914
70,9253834.818116932
222,11252837.923890466
967,40640043.25442915
1206,5236132.648682817
2,6, 1, 6, 0,14, 0.00,60.00,Friday
34,36764359.307072717
70,10290864.447447427
222,11971104.174351562
967,36764359.30707271
1206,0.0
2,6, 1, 6, 0,15, 0.00,60.00,Friday
34,35089304.41560447
70,9960020.828607725
222,11971104.174351562
967,35089304.41560447
1206,0.0
2,6, 1, 6, 0,16, 0.00,60.00,Friday
34,36222530.56444084
70,10708220.99901434
222,11971104.174351562
967,36222530.564440827
1206,0.0
2,6, 1, 6, 0,17, 0.00,60.00,Friday
34,37005659.59083683
70,11193184.186311055
222,11971104.174351562
967,37005659.59083683
1206,0.0
2,6, 1, 6, 0,18, 0.00,60.00,Friday
34,37041205.15134795
70,7695291.207166387
222,5985552.087175781
967,37041205.15134796
1206,4976991.487472379
2,6, 1, 6, 0,19, 0.00,60.00,Friday
34,33287370.086858818
70,5298397.224606365
222,2394220.834870312
967,33287370.08685881
1206,0.0
2,6, 1, 6, 0,20, 0.00,60.00,Friday
34,13931418.059538957
70,5298397.224606365
222,2394220.834870312
967,13931418.059538952
1206,0.0
2,6, 1, 6, 0,21, 0.00,60.00,Friday
34,12669894.910823152
70,4036874.0758905645
222,2394220.834870312
967,12669894.910823152
1206,0.0
2,6, 1, 6, 0,22, 0.00,60.00,Friday
34,12669894.910823152
70,4036874.0758905645
222,2394220.834870312
967,12669894.910823152
1206,0.0
2,6, 1, 6, 0,23, 0.00,60.00,Friday
34,11534524.076916654
70,2901503.2420463429
222,2394220.834870312
967,11534524.076916654
1206,0.0
2,6, 1, 6, 0,24, 0.00,60.00,Friday
34,11205881.415921549
70,2923570.5965399087
222,2043510.819381642
967,11205881.415921549
1206,0.0
2,7, 1, 7, 0, 1, 0.00,60.00,Saturday
34,10093157.415921549
70,2923570.5965399087
222,2043510.819381642
967,10093157.415921549
1206,0.0
2,7, 1, 7, 0, 2, 0.00,60.00,Saturday
34,10093157.415921549
70,2923570.5965399087
222,2043510.819381642
967,10093157.415921549
1206,0.0
2,7, 1, 7, 0, 3, 0.00,60.00,Saturday
34,10093157.415921549
70,2923570.5965399087
222,2043510.819381642
967,10093157.415921549
1206,0.0
2,7, 1, 7, 0, 4, 0.00,60.00,Saturday
34,10093157.415921549
70,2923570.5965399087
222,2043510.819381642
967,10093157.415921549
1206,0.0
2,7, 1, 7, 0, 5, 0.00,60.00,Saturday
34,10093157.415921549
70,2923570.5965399087
222,2043510.819381642
967,10093157.415921549
1206,0.0
2,7, 1, 7, 0, 6, 0.00,60.00,Saturday
34,10093157.415921549
70,2923570.5965399087
222,2043510.819381642
967,10093157.415921549
1206,0.0
2,7, 1, 7, 0, 7, 0.00,60.00,Saturday
34,11205881.415921549
70,2923570.5965399087
222,2043510.819381642
967,11205881.415921549
1206,0.0
2,7, 1, 7, 0, 8, 0.00,60.00,Saturday
34,10111481.415921549
70,2923570.5965399087
222,2043510.819381642
967,10111481.415921549
1206,0.0
2,7, 1, 7, 0, 9, 0.00,60.00,Saturday
34,7914033.306498788
70,2914922.487117148
222,2043510.819381642
967,7914033.306498788
1206,0.0
2,7, 1, 7, 0,10, 0.00,60.00,Saturday
34,7757317.727102339
70,2758206.9077206978
222,2043510.819381642
967,7757317.727102337
1206,0.0
2,7, 1, 7, 0,11, 0.00,60.00,Saturday
34,7632028.981980618
70,2632918.162598977
222,2043510.819381642
967,7632028.981980617
1206,0.0
2,7, 1, 7, 0,12, 0.00,60.00,Saturday
34,7560928.500818506
70,2561817.681436864
222,2043510.819381642
967,7560928.500818505
1206,0.0
2,7, 1, 7, 0,13, 0.00,60.00,Saturday
34,7567922.818274876
70,2568811.998893235
222,2043510.819381642
967,7567922.818274876
1206,0.0
2,7, 1, 7, 0,14, 0.00,60.00,Saturday
34,7524760.471181223
70,2525649.651799584
222,2043510.819381642
967,7524760.471181222
1206,0.0
2,7, 1, 7, 0,15, 0.00,60.00,Saturday
34,7557256.56494201
70,2558145.745560368
222,2043510.819381642
967,7557256.56494201
1206,0.0
2,7, 1, 7, 0,16, 0.00,60.00,Saturday
34,7658570.165098881
70,2659459.345717239
222,2043510.819381642
967,7658570.16509888
1206,0.0
2,7, 1, 7, 0,17, 0.00,60.00,Saturday
34,7864099.32000538
70,2864988.500623739
222,2043510.819381642
967,7864099.320005379
1206,0.0
2,7, 1, 7, 0,18, 0.00,60.00,Saturday
34,9564281.415921549
70,2923570.5965399087
222,2043510.819381642
967,9564281.415921549
1206,0.0
2,7, 1, 7, 0,19, 0.00,60.00,Saturday
34,11205881.415921549
70,2923570.5965399087
222,2043510.819381642
967,11205881.415921549
1206,0.0
2,7, 1, 7, 0,20, 0.00,60.00,Saturday
34,11205881.415921549
70,2923570.5965399087
222,2043510.819381642
967,11205881.415921549
1206,0.0
2,7, 1, 7, 0,21, 0.00,60.00,Saturday
34,11519013.496043595
70,2923570.5965399087
222,2043510.819381642
967,11519013.496043593
1206,0.0
2,7, 1, 7, 0,22, 0.00,60.00,Saturday
34,12522840.105031364
70,2923570.5965399087
222,2043510.819381642
967,12522840.10503136
1206,0.0
2,7, 1, 7, 0,23, 0.00,60.00,Saturday
34,13636744.994398358
70,2923570.5965399087
222,2043510.819381642
967,13636744.994398356
1206,0.0
2,7, 1, 7, 0,24, 0.00,60.00,Saturday
34,13040057.829266552
70,2923570.5965399087
222,2043510.819381642
967,13040057.82926655
1206,0.0
2,8, 1, 8, 0, 1, 0.00,60.00,Sunday
34,15289156.456515477
70,2923570.5965399087
222,2043510.819381642
967,15289156.456515473
1206,0.0
2,8, 1, 8, 0, 2, 0.00,60.00,Sunday
34,15640343.022969105
70,2923570.5965399087
222,2043510.819381642
967,15640343.022969103
1206,0.0
2,8, 1, 8, 0, 3, 0.00,60.00,Sunday
34,15021764.085758495
70,2923570.5965399087
222,2043510.819381642
967,15021764.085758493
1206,0.0
2,8, 1, 8, 0, 4, 0.00,60.00,Sunday
34,13591185.441826323
70,2923570.5965399087
222,2043510.819381642
967,13591185.44182632
1206,0.0
2,8, 1, 8, 0, 5, 0.00,60.00,Sunday
34,11735002.10149819
70,2923570.5965399087
222,2043510.819381642
967,11735002.101498187
1206,0.0
2,8, 1, 8, 0, 6, 0.00,60.00,Sunday
34,12421377.053192167
70,2923570.5965399087
222,2043510.819381642
967,12421377.053192167
1206,0.0
2,8, 1, 8, 0, 7, 0.00,60.00,Sunday
34,13873433.960039316
70,2923570.5965399087
222,2043510.819381642
967,13873433.960039316
1206,0.0
2,8, 1, 8, 0, 8, 0.00,60.00,Sunday
34,12066643.288684369
70,2923570.5965399087
222,2043510.819381642
967,12066643.288684369
1206,0.0
2,8, 1, 8, 0, 9, 0.00,60.00,Sunday
34,8881770.096742163
70,2836786.126715539
222,2043510.819381642
967,8881770.096742163
1206,0.0
2,8, 1, 8, 0,10, 0.00,60.00,Sunday
34,7599834.0729259629
70,2600723.253544322
222,2043510.819381642
967,7599834.072925963
1206,0.0
2,8, 1, 8, 0,11, 0.00,60.00,Sunday
34,7534817.853923827
70,2535707.034542189
222,2043510.819381642
967,7534817.853923827
1206,0.0
2,8, 1, 8, 0,12, 0.00,60.00,Sunday
34,7508078.330858881
70,2508967.5114772396
222,2043510.819381642
967,7508078.33085888
1206,0.0
2,8, 1, 8, 0,13, 0.00,60.00,Sunday
34,7488812.928709925
70,2489702.109328285
222,2043510.819381642
967,7488812.928709924
1206,0.0
2,8, 1, 8, 0,14, 0.00,60.00,Sunday
34,7506786.699945575
70,2507675.8805639345
222,2043510.819381642
967,7506786.699945573
1206,0.0
2,8, 1, 8, 0,15, 0.00,60.00,Sunday
34,7523468.840267917
70,2524358.0208862784
222,2043510.819381642
967,7523468.840267916
1206,0.0
2,8, 1, 8, 0,16, 0.00,60.00,Sunday
34,7579763.651130692
70,2580652.8317490506
222,2043510.819381642
967,7579763.651130691
1206,0.0
2,8, 1, 8, 0,17, 0.00,60.00,Sunday
34,7768666.740758248
70,2769555.9213766085
222,2043510.819381642
967,7768666.740758248
1206,0.0
2,8, 1, 8, 0,18, 0.00,60.00,Sunday
34,9017081.415921549
70,2923570.5965399087
222,2043510.819381642
967,9017081.415921549
1206,0.0
2,8, 1, 8, 0,19, 0.00,60.00,Sunday
34,11205881.415921549
70,2923570.5965399087
222,2043510.819381642
967,11205881.415921549
1206,0.0
2,8, 1, 8, 0,20, 0.00,60.00,Sunday
34,11205881.415921549
70,2923570.5965399087
222,2043510.819381642
967,11205881.415921549
1206,0.0
2,8, 1, 8, 0,21, 0.00,60.00,Sunday
34,11205881.415921549
70,2923570.5965399087
222,2043510.819381642
967,11205881.415921549
1206,0.0
2,8, 1, 8, 0,22, 0.00,60.00,Sunday
34,11205881.415921549
70,2923570.5965399087
222,2043510.819381642
967,11205881.415921549
1206,0.0
2,8, 1, 8, 0,23, 0.00,60.00,Sunday
34,11205881.415921549
70,2923570.5965399087
222,2043510.819381642
967,11205881.415921549
1206,0.0
2,8, 1, 8, 0,24, 0.00,60.00,Sunday
34,11205881.415921549
70,2923570.5965399087
222,2043510.819381642
967,11205881.415921549
1206,0.0
2,9, 1, 9, 0, 1, 0.00,60.00,Monday
34,13158423.644994012
70,2923570.5965399087
222,5108777.048454104
967,13158423.64499401
1206,0.0
2,9, 1, 9, 0, 2, 0.00,60.00,Monday
34,13158423.644994012
70,2923570.5965399087
222,5108777.048454104
967,13158423.64499401
1206,0.0
2,9, 1, 9, 0, 3, 0.00,60.00,Monday
34,13158423.644994012
70,2923570.5965399087
222,5108777.048454104
967,13158423.64499401
1206,0.0
2,9, 1, 9, 0, 4, 0.00,60.00,Monday
34,13158423.644994012
70,2923570.5965399087
222,5108777.048454104
967,13158423.64499401
1206,0.0
2,9, 1, 9, 0, 5, 0.00,60.00,Monday
34,13158423.644994012
70,2923570.5965399087
222,5108777.048454104
967,13158423.64499401
1206,0.0
2,9, 1, 9, 0, 6, 0.00,60.00,Monday
34,13970526.588477325
70,3735673.540023218
222,5108777.048454104
967,13970526.588477325
1206,0.0
2,9, 1, 9, 0, 7, 0.00,60.00,Monday
34,49331172.90161031
70,2901503.2420463429
222,5985552.087175781
967,49331172.90161031
1206,45049057.73341416
2,9, 1, 9, 0, 8, 0.00,60.00,Monday
34,49249654.68015135
70,5298397.224606365
222,5985552.087175781
967,49249654.68015136
1206,26681131.704214019
2,9, 1, 9, 0, 9, 0.00,60.00,Monday
34,53093217.68913609
70,11300200.287731827
222,11971104.174351562
967,53093217.68913609
1206,578221.5354211012
2,9, 1, 9, 0,10, 0.00,60.00,Monday
34,48281434.70183134
70,10497200.353727937
222,11971104.174351562
967,48281434.70183134
1206,0.0
2,9, 1, 9, 0,11, 0.00,60.00,Monday
34,42911976.728804748
70,9837405.169769243
222,11971104.174351562
967,42911976.72880474
1206,0.0
2,9, 1, 9, 0,12, 0.00,60.00,Monday
34,39600014.17044303
70,9763517.20098447
222,11971104.174351562
967,39600014.17044301
1206,0.0
2,9, 1, 9, 0,13, 0.00,60.00,Monday
34,41555965.21129935
70,8594468.2794153
222,11252837.923890466
967,41555965.21129935
1206,605031.5395885791
2,9, 1, 9, 0,14, 0.00,60.00,Monday
34,34563566.522301319
70,9783440.253890744
222,11971104.174351562
967,34563566.522301319
1206,0.0
2,9, 1, 9, 0,15, 0.00,60.00,Monday
34,32527637.132172318
70,9810746.21385566
222,11971104.174351562
967,32527637.132172314
1206,0.0
2,9, 1, 9, 0,16, 0.00,60.00,Monday
34,31974023.779294474
70,9921325.25523212
222,11971104.174351562
967,31974023.779294466
1206,0.0
2,9, 1, 9, 0,17, 0.00,60.00,Monday
34,32239881.568245867
70,10355669.88955184
222,11971104.174351562
967,32239881.568245859
1206,0.0
2,9, 1, 9, 0,18, 0.00,60.00,Monday
34,34794882.84031563
70,7670828.15555092
222,5985552.087175781
967,34794882.84031563
1206,44075.90144867265
2,9, 1, 9, 0,19, 0.00,60.00,Monday
34,32219022.076024508
70,5298397.224606365
222,2394220.834870312
967,32219022.076024504
1206,0.0
2,9, 1, 9, 0,20, 0.00,60.00,Monday
34,13931418.059538957
70,5298397.224606365
222,2394220.834870312
967,13931418.059538952
1206,0.0
2,9, 1, 9, 0,21, 0.00,60.00,Monday
34,12669894.910823152
70,4036874.0758905645
222,2394220.834870312
967,12669894.910823152
1206,0.0
2,9, 1, 9, 0,22, 0.00,60.00,Monday
34,12669894.910823152
70,4036874.0758905645
222,2394220.834870312
967,12669894.910823152
1206,0.0
2,9, 1, 9, 0,23, 0.00,60.00,Monday
34,11534524.076916654
70,2901503.2420463429
222,2394220.834870312
967,11534524.076916654
1206,0.0
2,9, 1, 9, 0,24, 0.00,60.00,Monday
34,11205881.415921549
70,2923570.5965399087
222,2043510.819381642
967,11205881.415921549
1206,0.0
2,10, 1,10, 0, 1, 0.00,60.00,Tuesday
34,13158423.644994012
70,2923570.5965399087
222,5108777.048454104
967,13158423.64499401
1206,0.0