Program Version,EnergyPlus, Version 9.0.1-bb7ca4f0da, YMD=2019.03.13 17:18
1,5,Environment Title[],Latitude[deg],Longitude[deg],Time Zone[],Elevation[m]
2,8,Day of Simulation[],Month[],Day of Month[],DST Indicator[1=yes 0=no],Hour[],StartMinute[],EndMinute[],DayType
3,5,Cumulative Day of Simulation[],Month[],Day of Month[],DST Indicator[1=yes 0=no],DayType  ! When Daily Meters Requested
4,2,Cumulative Days of Simulation[],Month[]  ! When Monthly Meters Requested
5,1,Cumulative Days of Simulation[] ! When Run Period Meters Requested
6,1,Calendar Year of Simulation[] ! When Annual Meters Requested
70,1,InteriorLights:Electricity [J] !Hourly
222,1,InteriorEquipment:Electricity [J] !Hourly
34,1,Electricity:Facility [J] !Hourly
967,1,ElectricityNet:Facility [J] !Hourly
1206,1,Gas:Facility [J] !Hourly
End of Data Dictionary
1,RUNPERIOD 1,  21.32,-157.93, -10.00,   2.00
2,1, 1, 1, 0, 1, 0.00,60.00,Holiday
34,9193157.415921549
70,2923570.5965399087
222,2043510.819381642
967,9193157.415921549
1206,0.0
2,1, 1, 1, 0, 2, 0.00,60.00,Holiday
34,9193157.415921549
70,2923570.5965399087
222,2043510.819381642
967,9193157.415921549
1206,0.0
2,1, 1, 1, 0, 3, 0.00,60.00,Holiday
34,9193157.415921549
70,2923570.5965399087
222,2043510.819381642
967,9193157.415921549
1206,0.0
2,1, 1, 1, 0, 4, 0.00,60.00,Holiday
34,9193157.415921549
70,2923570.5965399087
222,2043510.819381642
967,9193157.415921549
1206,0.0
2,1, 1, 1, 0, 5, 0.00,60.00,Holiday
34,9193157.415921549
70,2923570.5965399087
222,2043510.819381642
967,9193157.415921549
1206,0.0
2,1, 1, 1, 0, 6, 0.00,60.00,Holiday
34,9193157.415921549
70,2923570.5965399087
222,2043510.819381642
967,9193157.415921549
1206,0.0
2,1, 1, 1, 0, 7, 0.00,60.00,Holiday
34,10305881.415921549
70,2923570.5965399087
222,2043510.819381642
967,10305881.415921549
1206,0.0
2,1, 1, 1, 0, 8, 0.00,60.00,Holiday
34,7434628.592353835
70,2788317.772972195
222,2043510.819381642
967,7434628.592353835
1206,0.0
2,1, 1, 1, 0, 9, 0.00,60.00,Holiday
34,6743451.578739948
70,2644340.7593583066
222,2043510.819381642
967,6743451.578739948
1206,0.0
2,1, 1, 1, 0,10, 0.00,60.00,Holiday
34,6743451.578739948
70,2644340.7593583066
222,2043510.819381642
967,6743451.578739948
1206,0.0
2,1, 1, 1, 0,11, 0.00,60.00,Holiday
34,6751810.825826223
70,2652700.0064445824
222,2043510.819381642
967,6751810.825826223
1206,0.0
2,1, 1, 1, 0,12, 0.00,60.00,Holiday
34,6803148.877706561
70,2704038.05832492
222,2043510.819381642
967,6803148.87770656
1206,0.0
2,1, 1, 1, 0,13, 0.00,60.00,Holiday
34,6771396.827245138
70,2672286.007863497
222,2043510.819381642
967,6771396.827245138
1206,0.0
2,1, 1, 1, 0,14, 0.00,60.00,Holiday
34,6739355.914447229
70,2640245.09506559
222,2043510.819381642
967,6739355.914447229
1206,0.0
2,1, 1, 1, 0,15, 0.00,60.00,Holiday
34,6659490.272472
70,2560379.4530903587
222,2043510.819381642
967,6659490.272472
1206,0.0
2,1, 1, 1, 0,16, 0.00,60.00,Holiday
34,6683159.331427166
70,2584048.512045526
222,2043510.819381642
967,6683159.331427166
1206,0.0
2,1, 1, 1, 0,17, 0.00,60.00,Holiday
34,6850959.991269152
70,2751849.171887511
222,2043510.819381642
967,6850959.991269152
1206,0.0
2,1, 1, 1, 0,18, 0.00,60.00,Holiday
34,7569881.415921549
70,2923570.5965399087
222,2043510.819381642
967,7569881.415921548
1206,0.0
2,1, 1, 1, 0,19, 0.00,60.00,Holiday
34,10305881.415921549
70,2923570.5965399087
222,2043510.819381642
967,10305881.415921549
1206,0.0
2,1, 1, 1, 0,20, 0.00,60.00,Holiday
34,10305881.415921549
70,2923570.5965399087
222,2043510.819381642
967,10305881.415921549
1206,0.0
2,1, 1, 1, 0,21, 0.00,60.00,Holiday
34,10305881.415921549
70,2923570.5965399087
222,2043510.819381642
967,10305881.415921549
1206,0.0
2,1, 1, 1, 0,22, 0.00,60.00,Holiday
34,10305881.415921549
70,2923570.5965399087
222,2043510.819381642
967,10305881.415921549
1206,0.0
2,1, 1, 1, 0,23, 0.00,60.00,Holiday
34,10305881.415921549
70,2923570.5965399087
222,2043510.819381642
967,10305881.415921549
1206,0.0
2,1, 1, 1, 0,24, 0.00,60.00,Holiday
34,10305881.415921549
70,2923570.5965399087
222,2043510.819381642
967,10305881.415921549
1206,0.0
2,2, 1, 2, 0, 1, 0.00,60.00,Monday
34,12258423.644994012
70,2923570.5965399087
222,5108777.048454104
967,12258423.644994012
1206,0.0
2,2, 1, 2, 0, 2, 0.00,60.00,Monday
34,12258423.644994012
70,2923570.5965399087
222,5108777.048454104
967,12258423.644994012
1206,0.0
2,2, 1, 2, 0, 3, 0.00,60.00,Monday
34,12258423.644994012
70,2923570.5965399087
222,5108777.048454104
967,12258423.644994012
1206,0.0
2,2, 1, 2, 0, 4, 0.00,60.00,Monday
34,12258423.644994012
70,2923570.5965399087
222,5108777.048454104
967,12258423.644994012
1206,0.0
2,2, 1, 2, 0, 5, 0.00,60.00,Monday
34,12258423.644994012
70,2923570.5965399087
222,5108777.048454104
967,12258423.644994012
1206,0.0
2,2, 1, 2, 0, 6, 0.00,60.00,Monday
34,13070526.588477325
70,3735673.540023218
222,5108777.048454104
967,13070526.58847732
1206,0.0
2,2, 1, 2, 0, 7, 0.00,60.00,Monday
34,24028330.46667856
70,2901503.2420463429
222,5985552.087175781
967,24028330.466678557
1206,0.0
2,2, 1, 2, 0, 8, 0.00,60.00,Monday
34,24556632.444657349
70,5085927.310153305
222,5985552.087175781
967,24556632.44465734
1206,0.0
2,2, 1, 2, 0, 9, 0.00,60.00,Monday
34,40026743.96005346
70,9921325.25523212
222,11971104.174351562
967,40026743.96005346
1206,0.0
2,2, 1, 2, 0,10, 0.00,60.00,Monday
34,40958041.342389699
70,9747329.297086344
222,11971104.174351562
967,40958041.342389699
1206,0.0
2,2, 1, 2, 0,11, 0.00,60.00,Monday
34,41669756.494843009
70,9586805.144955183
222,11971104.174351562
967,41669756.494843009
1206,0.0
2,2, 1, 2, 0,12, 0.00,60.00,Monday
34,42311754.399816017
70,9635315.067157278
222,11971104.174351562
967,42311754.399816017
1206,0.0
2,2, 1, 2, 0,13, 0.00,60.00,Monday
34,41228579.83411211
70,8776146.295283506
222,11252837.923890466
967,41228579.83411211
1206,0.0
2,2, 1, 2, 0,14, 0.00,60.00,Monday
34,44169655.63223584
70,10046020.811458758
222,11971104.174351562
967,44169655.63223583
1206,0.0
2,2, 1, 2, 0,15, 0.00,60.00,Monday
34,43885290.09764887
70,9955792.954769941
222,11971104.174351562
967,43885290.09764887
1206,0.0
2,2, 1, 2, 0,16, 0.00,60.00,Monday
34,43249762.51206914
70,10170756.817778472
222,11971104.174351562
967,43249762.51206914
1206,0.0
2,2, 1, 2, 0,17, 0.00,60.00,Monday
34,42273270.60047899
70,10463740.901758777
222,11971104.174351562
967,42273270.60047899
1206,0.0
2,2, 1, 2, 0,18, 0.00,60.00,Monday
34,29499982.747345129
70,7669128.269113797
222,5985552.087175781
967,29499982.747345125
1206,0.0
2,2, 1, 2, 0,19, 0.00,60.00,Monday
34,18818834.235940227
70,5298397.224606365
222,2394220.834870312
967,18818834.23594022
1206,0.0
2,2, 1, 2, 0,20, 0.00,60.00,Monday
34,13031418.059538957
70,5298397.224606365
222,2394220.834870312
967,13031418.059538952
1206,0.0
2,2, 1, 2, 0,21, 0.00,60.00,Monday
34,11769894.910823154
70,4036874.0758905645
222,2394220.834870312
967,11769894.910823152
1206,0.0
2,2, 1, 2, 0,22, 0.00,60.00,Monday
34,11769894.910823154
70,4036874.0758905645
222,2394220.834870312
967,11769894.910823152
1206,0.0
2,2, 1, 2, 0,23, 0.00,60.00,Monday
34,10634524.076916654
70,2901503.2420463429
222,2394220.834870312
967,10634524.076916654
1206,0.0
2,2, 1, 2, 0,24, 0.00,60.00,Monday
34,10305881.415921549
70,2923570.5965399087
222,2043510.819381642
967,10305881.415921549
1206,0.0
2,3, 1, 3, 0, 1, 0.00,60.00,Tuesday
34,12258423.644994012
70,2923570.5965399087
222,5108777.048454104
967,12258423.644994012
1206,0.0
2,3, 1, 3, 0, 2, 0.00,60.00,Tuesday
34,12258423.644994012
70,2923570.5965399087
222,5108777.048454104
967,12258423.644994012
1206,0.0
2,3, 1, 3, 0, 3, 0.00,60.00,Tuesday
34,12258423.644994012
70,2923570.5965399087
222,5108777.048454104
967,12258423.644994012
1206,0.0
2,3, 1, 3, 0, 4, 0.00,60.00,Tuesday
34,12258423.644994012
70,2923570.5965399087
222,5108777.048454104
967,12258423.644994012
1206,0.0
2,3, 1, 3, 0, 5, 0.00,60.00,Tuesday
34,12258423.644994012
70,2923570.5965399087
222,5108777.048454104
967,12258423.644994012
1206,0.0
2,3, 1, 3, 0, 6, 0.00,60.00,Tuesday
34,13070526.588477325
70,3735673.540023218
222,5108777.048454104
967,13070526.58847732
1206,0.0
2,3, 1, 3, 0, 7, 0.00,60.00,Tuesday
34,22879603.588498255
70,2901503.2420463429
222,5985552.087175781
967,22879603.588498244
1206,0.0
2,3, 1, 3, 0, 8, 0.00,60.00,Tuesday
34,23626922.270629076
70,5010883.199638125
222,5985552.087175781
967,23626922.27062907
1206,0.0
2,3, 1, 3, 0, 9, 0.00,60.00,Tuesday
34,40245425.34998356
70,9950492.24031523
222,11971104.174351562
967,40245425.34998356
1206,0.0
2,3, 1, 3, 0,10, 0.00,60.00,Tuesday
34,41253206.42954209
70,9606728.197861458
222,11971104.174351562
967,41253206.42954209
1206,0.0
2,3, 1, 3, 0,11, 0.00,60.00,Tuesday
34,43317255.71974458
70,9727406.244180067
222,11971104.174351562
967,43317255.71974457
1206,0.0
2,3, 1, 3, 0,12, 0.00,60.00,Tuesday
34,44421773.029380697
70,10125874.428580333
222,11971104.174351562
967,44421773.029380697
1206,0.0
2,3, 1, 3, 0,13, 0.00,60.00,Tuesday
34,41974014.2023279
70,8869151.915612773
222,11252837.923890466
967,41974014.2023279
1206,0.0
2,3, 1, 3, 0,14, 0.00,60.00,Tuesday
34,44778127.32522764
70,9972779.846725315
222,11971104.174351562
967,44778127.32522763
1206,0.0
2,3, 1, 3, 0,15, 0.00,60.00,Tuesday
34,44943716.09902105
70,9930569.187408958
222,11971104.174351562
967,44943716.09902104
1206,0.0
2,3, 1, 3, 0,16, 0.00,60.00,Tuesday
34,44599921.24654364
70,10083663.769263974
222,11971104.174351562
967,44599921.24654363
1206,0.0
2,3, 1, 3, 0,17, 0.00,60.00,Tuesday
34,43595984.674335289
70,10483663.95466505
222,11971104.174351562
967,43595984.674335289
1206,0.0
2,3, 1, 3, 0,18, 0.00,60.00,Tuesday
34,30783395.11026632
70,7644665.21749833
222,5985552.087175781
967,30783395.11026632
1206,0.0
2,3, 1, 3, 0,19, 0.00,60.00,Tuesday
34,18818834.235940227
70,5298397.224606365
222,2394220.834870312
967,18818834.23594022
1206,0.0
2,3, 1, 3, 0,20, 0.00,60.00,Tuesday
34,13031418.059538957
70,5298397.224606365
222,2394220.834870312
967,13031418.059538952
1206,0.0
2,3, 1, 3, 0,21, 0.00,60.00,Tuesday
34,11769894.910823154
70,4036874.0758905645
222,2394220.834870312
967,11769894.910823152
1206,0.0
2,3, 1, 3, 0,22, 0.00,60.00,Tuesday
34,11769894.910823154
70,4036874.0758905645
222,2394220.834870312
967,11769894.910823152
1206,0.0
2,3, 1, 3, 0,23, 0.00,60.00,Tuesday
34,10634524.076916654
70,2901503.2420463429
222,2394220.834870312
967,10634524.076916654
1206,0.0
2,3, 1, 3, 0,24, 0.00,60.00,Tuesday
34,10305881.415921549
70,2923570.5965399087
222,2043510.819381642
967,10305881.415921549
1206,0.0
2,4, 1, 4, 0, 1, 0.00,60.00,Wednesday
34,12258423.644994012
70,2923570.5965399087
222,5108777.048454104
967,12258423.644994012
1206,0.0
2,4, 1, 4, 0, 2, 0.00,60.00,Wednesday
34,12258423.644994012
70,2923570.5965399087
222,5108777.048454104
967,12258423.644994012
1206,0.0
2,4, 1, 4, 0, 3, 0.00,60.00,Wednesday
34,12258423.644994012
70,2923570.5965399087
222,5108777.048454104
967,12258423.644994012
1206,0.0
2,4, 1, 4, 0, 4, 0.00,60.00,Wednesday
34,12258423.644994012
70,2923570.5965399087
222,5108777.048454104
967,12258423.644994012
1206,0.0
2,4, 1, 4, 0, 5, 0.00,60.00,Wednesday
34,12258423.644994012
70,2923570.5965399087
222,5108777.048454104
967,12258423.644994012
1206,0.0
2,4, 1, 4, 0, 6, 0.00,60.00,Wednesday
34,13070526.588477325
70,3735673.540023218
222,5108777.048454104
967,13070526.58847732
1206,0.0
2,4, 1, 4, 0, 7, 0.00,60.00,Wednesday
34,21218880.47931375
70,2901503.2420463429
222,5985552.087175781
967,21218880.47931375
1206,0.0
2,4, 1, 4, 0, 8, 0.00,60.00,Wednesday
34,21726097.27089481
70,5025164.214001456
222,5985552.087175781
967,21726097.270894808
1206,0.0
2,4, 1, 4, 0, 9, 0.00,60.00,Wednesday
34,39855656.143013898
70,10068472.118581096
222,11971104.174351562
967,39855656.143013898
1206,0.0
2,4, 1, 4, 0,10, 0.00,60.00,Wednesday
34,41661930.18579454
70,9907853.4492175
222,11971104.174351562
967,41661930.18579454
1206,0.0
2,4, 1, 4, 0,11, 0.00,60.00,Wednesday
34,43447551.01927141
70,9887930.396311228
222,11971104.174351562
967,43447551.01927141
1206,0.0
2,4, 1, 4, 0,12, 0.00,60.00,Wednesday
34,43521754.185627359
70,9793331.19011891
222,11971104.174351562
967,43521754.18562736
1206,0.0
2,4, 1, 4, 0,13, 0.00,60.00,Wednesday
34,41246955.77868593
70,8663201.935331308
222,11252837.923890466
967,41246955.77868593
1206,0.0
2,4, 1, 4, 0,14, 0.00,60.00,Wednesday
34,44583386.52548263
70,9975287.875894843
222,11971104.174351562
967,44583386.52548263
1206,0.0
2,4, 1, 4, 0,15, 0.00,60.00,Wednesday
34,44800418.86710059
70,9935585.245748012
222,11971104.174351562
967,44800418.86710059
1206,0.0
2,4, 1, 4, 0,16, 0.00,60.00,Wednesday
34,44064330.85043362
70,10362860.362511486
222,11971104.174351562
967,44064330.85043362
1206,0.0
2,4, 1, 4, 0,17, 0.00,60.00,Wednesday
34,43131091.08540592
70,10507814.881409107
222,11971104.174351562
967,43131091.08540592
1206,0.0
2,4, 1, 4, 0,18, 0.00,60.00,Wednesday
34,30271780.710577504
70,7670828.15555092
222,5985552.087175781
967,30271780.710577497
1206,0.0
2,4, 1, 4, 0,19, 0.00,60.00,Wednesday
34,18818834.235940227
70,5298397.224606365
222,2394220.834870312
967,18818834.23594022
1206,0.0
2,4, 1, 4, 0,20, 0.00,60.00,Wednesday
34,13031418.059538957
70,5298397.224606365
222,2394220.834870312
967,13031418.059538952
1206,0.0
2,4, 1, 4, 0,21, 0.00,60.00,Wednesday
34,11769894.910823154
70,4036874.0758905645
222,2394220.834870312
967,11769894.910823152
1206,0.0
2,4, 1, 4, 0,22, 0.00,60.00,Wednesday
34,11769894.910823154
70,4036874.0758905645
222,2394220.834870312
967,11769894.910823152
1206,0.0
2,4, 1, 4, 0,23, 0.00,60.00,Wednesday
34,10634524.076916654
70,2901503.2420463429
222,2394220.834870312
967,10634524.076916654
1206,0.0
2,4, 1, 4, 0,24, 0.00,60.00,Wednesday
34,10305881.415921549
70,2923570.5965399087
222,2043510.819381642
967,10305881.415921549
1206,0.0
2,5, 1, 5, 0, 1, 0.00,60.00,Thursday
34,12258423.644994012
70,2923570.5965399087
222,5108777.048454104
967,12258423.644994012
1206,0.0
2,5, 1, 5, 0, 2, 0.00,60.00,Thursday
34,12258423.644994012
70,2923570.5965399087
222,5108777.048454104
967,12258423.644994012
1206,0.0
2,5, 1, 5, 0, 3, 0.00,60.00,Thursday
34,12258423.644994012
70,2923570.5965399087
222,5108777.048454104
967,12258423.644994012
1206,0.0
2,5, 1, 5, 0, 4, 0.00,60.00,Thursday
34,12258423.644994012
70,2923570.5965399087
222,5108777.048454104
967,12258423.644994012
1206,0.0
2,5, 1, 5, 0, 5, 0.00,60.00,Thursday
34,12258423.644994012
70,2923570.5965399087
222,5108777.048454104
967,12258423.644994012
1206,0.0
2,5, 1, 5, 0, 6, 0.00,60.00,Thursday
34,13070526.588477325
70,3735673.540023218
222,5108777.048454104
967,13070526.58847732
1206,0.0
2,5, 1, 5, 0, 7, 0.00,60.00,Thursday
34,20804381.458055676
70,2901503.2420463429
222,5985552.087175781
967,20804381.458055676
1206,0.0
2,5, 1, 5, 0, 8, 0.00,60.00,Thursday
34,20780739.31971569
70,5034461.638691051
222,5985552.087175781
967,20780739.319715684
1206,0.0
2,5, 1, 5, 0, 9, 0.00,60.00,Thursday
34,38157335.69845234
70,10182224.12300918
222,11971104.174351562
967,38157335.69845234
1206,0.0
2,5, 1, 5, 0,10, 0.00,60.00,Thursday
34,40610951.94709089
70,9914589.35222481
222,11971104.174351562
967,40610951.94709089
1206,0.0
2,5, 1, 5, 0,11, 0.00,60.00,Thursday
34,42316633.13778425
70,9828161.237592407
222,11971104.174351562
967,42316633.13778425
1206,0.0
2,5, 1, 5, 0,12, 0.00,60.00,Thursday
34,42539333.88952769
70,9798347.248457965
222,11971104.174351562
967,42539333.88952769
1206,0.0
2,5, 1, 5, 0,13, 0.00,60.00,Thursday
34,40028088.20744535
70,8778375.654545308
222,11252837.923890466
967,40028088.20744535
1206,0.0
2,5, 1, 5, 0,14, 0.00,60.00,Thursday
34,42828303.67771793
70,9803363.306797019
222,11971104.174351562
967,42828303.67771793
1206,0.0
2,5, 1, 5, 0,15, 0.00,60.00,Thursday
34,43091156.23329097
70,9923833.284401646
222,11971104.174351562
967,43091156.23329097
1206,0.0
2,5, 1, 5, 0,16, 0.00,60.00,Thursday
34,43178137.55071088
70,10228492.742326642
222,11971104.174351562
967,43178137.55071088
1206,0.0
2,5, 1, 5, 0,17, 0.00,60.00,Thursday
34,42229487.05419774
70,10887215.085668412
222,11971104.174351562
967,42229487.054197739
1206,0.0
2,5, 1, 5, 0,18, 0.00,60.00,Thursday
34,29566326.6890362
70,7695291.207166387
222,5985552.087175781
967,29566326.689036199
1206,0.0
2,5, 1, 5, 0,19, 0.00,60.00,Thursday
34,18818834.235940227
70,5298397.224606365
222,2394220.834870312
967,18818834.23594022
1206,0.0
2,5, 1, 5, 0,20, 0.00,60.00,Thursday
34,13031418.059538957
70,5298397.224606365
222,2394220.834870312
967,13031418.059538952
1206,0.0
2,5, 1, 5, 0,21, 0.00,60.00,Thursday
34,11769894.910823154
70,4036874.0758905645
222,2394220.834870312
967,11769894.910823152
1206,0.0
2,5, 1, 5, 0,22, 0.00,60.00,Thursday
34,11769894.910823154
70,4036874.0758905645
222,2394220.834870312
967,11769894.910823152
1206,0.0
2,5, 1, 5, 0,23, 0.00,60.00,Thursday
34,10634524.076916654
70,2901503.2420463429
222,2394220.834870312
967,10634524.076916654
1206,0.0
2,5, 1, 5, 0,24, 0.00,60.00,Thursday
34,10305881.415921549
70,2923570.5965399087
222,2043510.819381642
967,10305881.415921549
1206,0.0
2,6, 1, 6, 0, 1, 0.00,60.00,Friday
34,12258423.644994012
70,2923570.5965399087
222,5108777.048454104
967,12258423.644994012
1206,0.0
2,6, 1, 6, 0, 2, 0.00,60.00,Friday
34,12258423.644994012
70,2923570.5965399087
222,5108777.048454104
967,12258423.644994012
1206,0.0
2,6, 1, 6, 0, 3, 0.00,60.00,Friday
34,12258423.644994012
70,2923570.5965399087
222,5108777.048454104
967,12258423.644994012
1206,0.0
2,6, 1, 6, 0, 4, 0.00,60.00,Friday
34,12258423.644994012
70,2923570.5965399087
222,5108777.048454104
967,12258423.644994012
1206,0.0
2,6, 1, 6, 0, 5, 0.00,60.00,Friday
34,12258423.644994012
70,2923570.5965399087
222,5108777.048454104
967,12258423.644994012
1206,0.0
2,6, 1, 6, 0, 6, 0.00,60.00,Friday
34,13070526.588477325
70,3735673.540023218
222,5108777.048454104
967,13070526.58847732
1206,0.0
2,6, 1, 6, 0, 7, 0.00,60.00,Friday
34,20814251.324624264
70,2901503.2420463429
222,5985552.087175781
967,20814251.324624257
1206,0.0
2,6, 1, 6, 0, 8, 0.00,60.00,Friday
34,21495147.99277042
70,5036567.486002656
222,5985552.087175781
967,21495147.992770416
1206,0.0
2,6, 1, 6, 0, 9, 0.00,60.00,Friday
34,38072976.11935879
70,9907853.4492175
222,11971104.174351562
967,38072976.11935879
1206,0.0
2,6, 1, 6, 0,10, 0.00,60.00,Friday
34,40312069.942624408
70,9907853.4492175
222,11971104.174351562
967,40312069.942624408
1206,0.0
2,6, 1, 6, 0,11, 0.00,60.00,Friday
34,41193594.92138843
70,9808238.184686132
222,11971104.174351562
967,41193594.92138843
1206,0.0
2,6, 1, 6, 0,12, 0.00,60.00,Friday
34,42923570.51861829
70,9990194.870462064
222,11971104.174351562
967,42923570.5186183
1206,0.0
2,6, 1, 6, 0,13, 0.00,60.00,Friday
34,41386372.2594149
70,8993117.578140699
222,11252837.923890466
967,41386372.2594149
1206,0.0
2,6, 1, 6, 0,14, 0.00,60.00,Friday
34,44007836.29437107
70,10051968.529964796
222,11971104.174351562
967,44007836.29437107
1206,0.0
2,6, 1, 6, 0,15, 0.00,60.00,Friday
34,43493702.24044456
70,9955792.954769943
222,11971104.174351562
967,43493702.240444559
1206,0.0
2,6, 1, 6, 0,16, 0.00,60.00,Friday
34,42753140.857773218
70,10115623.439632269
222,11971104.174351562
967,42753140.857773218
1206,0.0
2,6, 1, 6, 0,17, 0.00,60.00,Friday
34,42398735.27401858
70,10439589.97501472
222,11971104.174351562
967,42398735.27401858
1206,0.0
2,6, 1, 6, 0,18, 0.00,60.00,Friday
34,29561695.443731265
70,7646365.103935454
222,5985552.087175781
967,29561695.443731257
1206,0.0
2,6, 1, 6, 0,19, 0.00,60.00,Friday
34,18818834.235940227
70,5298397.224606365
222,2394220.834870312
967,18818834.23594022
1206,0.0
2,6, 1, 6, 0,20, 0.00,60.00,Friday
34,13031418.059538957
70,5298397.224606365
222,2394220.834870312
967,13031418.059538952
1206,0.0
2,6, 1, 6, 0,21, 0.00,60.00,Friday
34,11769894.910823154
70,4036874.0758905645
222,2394220.834870312
967,11769894.910823152
1206,0.0
2,6, 1, 6, 0,22, 0.00,60.00,Friday
34,11769894.910823154
70,4036874.0758905645
222,2394220.834870312
967,11769894.910823152
1206,0.0
2,6, 1, 6, 0,23, 0.00,60.00,Friday
34,10634524.076916654
70,2901503.2420463429
222,2394220.834870312
967,10634524.076916654
1206,0.0
2,6, 1, 6, 0,24, 0.00,60.00,Friday
34,10305881.415921549
70,2923570.5965399087
222,2043510.819381642
967,10305881.415921549
1206,0.0
2,7, 1, 7, 0, 1, 0.00,60.00,Saturday
34,9193157.415921549
70,2923570.5965399087
222,2043510.819381642
967,9193157.415921549
1206,0.0
2,7, 1, 7, 0, 2, 0.00,60.00,Saturday
34,9193157.415921549
70,2923570.5965399087
222,2043510.819381642
967,9193157.415921549
1206,0.0
2,7, 1, 7, 0, 3, 0.00,60.00,Saturday
34,9193157.415921549
70,2923570.5965399087
222,2043510.819381642
967,9193157.415921549
1206,0.0
2,7, 1, 7, 0, 4, 0.00,60.00,Saturday
34,9193157.415921549
70,2923570.5965399087
222,2043510.819381642
967,9193157.415921549
1206,0.0
2,7, 1, 7, 0, 5, 0.00,60.00,Saturday
34,9193157.415921549
70,2923570.5965399087
222,2043510.819381642
967,9193157.415921549
1206,0.0
2,7, 1, 7, 0, 6, 0.00,60.00,Saturday
34,9193157.415921549
70,2923570.5965399087
222,2043510.819381642
967,9193157.415921549
1206,0.0
2,7, 1, 7, 0, 7, 0.00,60.00,Saturday
34,10305881.415921549
70,2923570.5965399087
222,2043510.819381642
967,10305881.415921549
1206,0.0
2,7, 1, 7, 0, 8, 0.00,60.00,Saturday
34,7434628.592353835
70,2788317.772972195
222,2043510.819381642
967,7434628.592353835
1206,0.0
2,7, 1, 7, 0, 9, 0.00,60.00,Saturday
34,6717507.250471665
70,2618396.4310900236
222,2043510.819381642
967,6717507.250471665
1206,0.0
2,7, 1, 7, 0,10, 0.00,60.00,Saturday
34,6660781.903385305
70,2561671.084003664
222,2043510.819381642
967,6660781.903385304
1206,0.0
2,7, 1, 7, 0,11, 0.00,60.00,Saturday
34,6653198.1299025029
70,2554087.3105208615
222,2043510.819381642
967,6653198.1299025029
1206,0.0
2,7, 1, 7, 0,12, 0.00,60.00,Saturday
34,6638859.3496769559
70,2539748.530295317
222,2043510.819381642
967,6638859.3496769559
1206,0.0
2,7, 1, 7, 0,13, 0.00,60.00,Saturday
34,6647864.412219887
70,2548753.5928382456
222,2043510.819381642
967,6647864.412219887
1206,0.0
2,7, 1, 7, 0,14, 0.00,60.00,Saturday
34,6656187.305455953
70,2557076.486074313
222,2043510.819381642
967,6656187.305455953
1206,0.0
2,7, 1, 7, 0,15, 0.00,60.00,Saturday
34,6660339.044792073
70,2561228.225410432
222,2043510.819381642
967,6660339.044792073
1206,0.0
2,7, 1, 7, 0,16, 0.00,60.00,Saturday
34,6731850.647613943
70,2632739.8282323025
222,2043510.819381642
967,6731850.647613943
1206,0.0
2,7, 1, 7, 0,17, 0.00,60.00,Saturday
34,6793515.53000954
70,2694404.7106278997
222,2043510.819381642
967,6793515.53000954
1206,0.0
2,7, 1, 7, 0,18, 0.00,60.00,Saturday
34,7003447.75070607
70,2904336.931324429
222,2043510.819381642
967,7003447.75070607
1206,0.0
2,7, 1, 7, 0,19, 0.00,60.00,Saturday
34,10305881.415921549
70,2923570.5965399087
222,2043510.819381642
967,10305881.415921549
1206,0.0
2,7, 1, 7, 0,20, 0.00,60.00,Saturday
34,10305881.415921549
70,2923570.5965399087
222,2043510.819381642
967,10305881.415921549
1206,0.0
2,7, 1, 7, 0,21, 0.00,60.00,Saturday
34,10305881.415921549
70,2923570.5965399087
222,2043510.819381642
967,10305881.415921549
1206,0.0
2,7, 1, 7, 0,22, 0.00,60.00,Saturday
34,10305881.415921549
70,2923570.5965399087
222,2043510.819381642
967,10305881.415921549
1206,0.0
2,7, 1, 7, 0,23, 0.00,60.00,Saturday
34,10305881.415921549
70,2923570.5965399087
222,2043510.819381642
967,10305881.415921549
1206,0.0
2,7, 1, 7, 0,24, 0.00,60.00,Saturday
34,10305881.415921549
70,2923570.5965399087
222,2043510.819381642
967,10305881.415921549
1206,0.0
2,8, 1, 8, 0, 1, 0.00,60.00,Sunday
34,9193157.415921549
70,2923570.5965399087
222,2043510.819381642
967,9193157.415921549
1206,0.0
2,8, 1, 8, 0, 2, 0.00,60.00,Sunday
34,9193157.415921549
70,2923570.5965399087
222,2043510.819381642
967,9193157.415921549
1206,0.0
2,8, 1, 8, 0, 3, 0.00,60.00,Sunday
34,9193157.415921549
70,2923570.5965399087
222,2043510.819381642
967,9193157.415921549
1206,0.0
2,8, 1, 8, 0, 4, 0.00,60.00,Sunday
34,9193157.415921549
70,2923570.5965399087
222,2043510.819381642
967,9193157.415921549
1206,0.0
2,8, 1, 8, 0, 5, 0.00,60.00,Sunday
34,9193157.415921549
70,2923570.5965399087
222,2043510.819381642
967,9193157.415921549
1206,0.0
2,8, 1, 8, 0, 6, 0.00,60.00,Sunday
34,9193157.415921549
70,2923570.5965399087
222,2043510.819381642
967,9193157.415921549
1206,0.0
2,8, 1, 8, 0, 7, 0.00,60.00,Sunday
34,10305881.415921549
70,2923570.5965399087
222,2043510.819381642
967,10305881.415921549
1206,0.0
2,8, 1, 8, 0, 8, 0.00,60.00,Sunday
34,7472641.048451281
70,2826330.2290696406
222,2043510.819381642
967,7472641.048451279
1206,0.0
2,8, 1, 8, 0, 9, 0.00,60.00,Sunday
34,6656224.250322346
70,2557113.4309407046
222,2043510.819381642
967,6656224.250322346
1206,0.0
2,8, 1, 8, 0,10, 0.00,60.00,Sunday
34,6600392.019245997
70,2501281.1998643574
222,2043510.819381642
967,6600392.019245997
1206,0.0
2,8, 1, 8, 0,11, 0.00,60.00,Sunday
34,6585647.325293612
70,2486536.505911971
222,2043510.819381642
967,6585647.325293612
1206,0.0
2,8, 1, 8, 0,12, 0.00,60.00,Sunday
34,6627823.536467459
70,2528712.717085818
222,2043510.819381642
967,6627823.536467459
1206,0.0
2,8, 1, 8, 0,13, 0.00,60.00,Sunday
34,6650152.003902648
70,2551041.1845210066
222,2043510.819381642
967,6650152.003902648
1206,0.0
2,8, 1, 8, 0,14, 0.00,60.00,Sunday
34,6754171.716225583
70,2655060.8968439439
222,2043510.819381642
967,6754171.716225583
1206,0.0
2,8, 1, 8, 0,15, 0.00,60.00,Sunday
34,6731383.166523965
70,2632272.3471423245
222,2043510.819381642
967,6731383.166523964
1206,0.0
2,8, 1, 8, 0,16, 0.00,60.00,Sunday
34,6876177.215524451
70,2777066.3961428117
222,2043510.819381642
967,6876177.215524451
1206,0.0
2,8, 1, 8, 0,17, 0.00,60.00,Sunday
34,7022681.415921549
70,2923570.5965399087
222,2043510.819381642
967,7022681.415921548
1206,0.0
2,8, 1, 8, 0,18, 0.00,60.00,Sunday
34,7022681.415921549
70,2923570.5965399087
222,2043510.819381642
967,7022681.415921549
1206,0.0
2,8, 1, 8, 0,19, 0.00,60.00,Sunday
34,10305881.415921549
70,2923570.5965399087
222,2043510.819381642
967,10305881.415921549
1206,0.0
2,8, 1, 8, 0,20, 0.00,60.00,Sunday
34,10305881.415921549
70,2923570.5965399087
222,2043510.819381642
967,10305881.415921549
1206,0.0
2,8, 1, 8, 0,21, 0.00,60.00,Sunday
34,10305881.415921549
70,2923570.5965399087
222,2043510.819381642
967,10305881.415921549
1206,0.0
2,8, 1, 8, 0,22, 0.00,60.00,Sunday
34,10305881.415921549
70,2923570.5965399087
222,2043510.819381642
967,10305881.415921549
1206,0.0
2,8, 1, 8, 0,23, 0.00,60.00,Sunday
34,10305881.415921549
70,2923570.5965399087
222,2043510.819381642
967,10305881.415921549
1206,0.0
2,8, 1, 8, 0,24, 0.00,60.00,Sunday
34,10305881.415921549
70,2923570.5965399087
222,2043510.819381642
967,10305881.415921549
1206,0.0
2,9, 1, 9, 0, 1, 0.00,60.00,Monday
34,12258423.644994012
70,2923570.5965399087
222,5108777.048454104
967,12258423.644994012
1206,0.0
2,9, 1, 9, 0, 2, 0.00,60.00,Monday
34,12258423.644994012
70,2923570.5965399087
222,5108777.048454104
967,12258423.644994012
1206,0.0
2,9, 1, 9, 0, 3, 0.00,60.00,Monday
34,12258423.644994012
70,2923570.5965399087
222,5108777.048454104
967,12258423.644994012
1206,0.0
2,9, 1, 9, 0, 4, 0.00,60.00,Monday
34,12258423.644994012
70,2923570.5965399087
222,5108777.048454104
967,12258423.644994012
1206,0.0
2,9, 1, 9, 0, 5, 0.00,60.00,Monday
34,12258423.644994012
70,2923570.5965399087
222,5108777.048454104
967,12258423.644994012
1206,0.0
2,9, 1, 9, 0, 6, 0.00,60.00,Monday
34,13070526.588477325
70,3735673.540023218
222,5108777.048454104
967,13070526.58847732
1206,0.0
2,9, 1, 9, 0, 7, 0.00,60.00,Monday
34,20928587.2008736
70,2901503.2420463429
222,5985552.087175781
967,20928587.2008736
1206,0.0
2,9, 1, 9, 0, 8, 0.00,60.00,Monday
34,20746662.390690164
70,5047124.055783531
222,5985552.087175781
967,20746662.390690157
1206,0.0
2,9, 1, 9, 0, 9, 0.00,60.00,Monday
34,38222307.119742687
70,10128716.072298794
222,11971104.174351562
967,38222307.119742687
1206,0.0
2,9, 1, 9, 0,10, 0.00,60.00,Monday
34,40480384.65837348
70,9907853.4492175
222,11971104.174351562
967,40480384.658373478
1206,0.0
2,9, 1, 9, 0,11, 0.00,60.00,Monday
34,41813006.282299328
70,9788315.131779859
222,11971104.174351562
967,41813006.28229932
1206,0.0
2,9, 1, 9, 0,12, 0.00,60.00,Monday
34,41738595.59266591
70,9818554.957479895
222,11971104.174351562
967,41738595.59266591
1206,0.0
2,9, 1, 9, 0,13, 0.00,60.00,Monday
34,38673535.796570848
70,8856281.815358684
222,11252837.923890466
967,38673535.796570848
1206,0.0
2,9, 1, 9, 0,14, 0.00,60.00,Monday
34,41525093.51783593
70,9987467.969022578
222,11971104.174351562
967,41525093.51783593
1206,0.0
2,9, 1, 9, 0,15, 0.00,60.00,Monday
34,41531770.34791814
70,9978652.168627114
222,11971104.174351562
967,41531770.347918149
1206,0.0
2,9, 1, 9, 0,16, 0.00,60.00,Monday
34,41086077.404711287
70,10215523.360279292
222,11971104.174351562
967,41086077.40471128
1206,0.0
2,9, 1, 9, 0,17, 0.00,60.00,Monday
34,41064999.34248028
70,11196937.265149963
222,11971104.174351562
967,41064999.34248028
1206,0.0
2,9, 1, 9, 0,18, 0.00,60.00,Monday
34,27209418.880184495
70,7695291.207166387
222,5985552.087175781
967,27209418.880184495
1206,0.0
2,9, 1, 9, 0,19, 0.00,60.00,Monday
34,18818834.235940227
70,5298397.224606365
222,2394220.834870312
967,18818834.23594022
1206,0.0
2,9, 1, 9, 0,20, 0.00,60.00,Monday
34,13031418.059538957
70,5298397.224606365
222,2394220.834870312
967,13031418.059538952
1206,0.0
2,9, 1, 9, 0,21, 0.00,60.00,Monday
34,11769894.910823154
70,4036874.0758905645
222,2394220.834870312
967,11769894.910823152
1206,0.0
2,9, 1, 9, 0,22, 0.00,60.00,Monday
34,11769894.910823154
70,4036874.0758905645
222,2394220.834870312
967,11769894.910823152
1206,0.0
2,9, 1, 9, 0,23, 0.00,60.00,Monday
34,10634524.076916654
70,2901503.2420463429
222,2394220.834870312
967,10634524.076916654
1206,0.0
2,9, 1, 9, 0,24, 0.00,60.00,Monday
34,10305881.415921549
70,2923570.5965399087
222,2043510.819381642
967,10305881.415921549
1206,0.0
2,10, 1,10, 0, 1, 0.00,60.00,Tuesday
34,12258423.644994012
70,2923570.5965399087
222,5108777.048454104
967,12258423.644994012
1206,0.0
2,10, 1,10, 0, 2, 0.00,60.00,Tuesday
34,12258423.644994012
70,2923570.5965399087
222,5108777.048454104
967,12258423.644994012
1206,0.0
2,10, 1,10, 0, 3, 0.00,60.00,Tuesday
34,12258423.644994012
70,2923570.5965399087
222,5108777.048454104
967,12258423.644994012
1206,0.0
2,10, 1,10, 0, 4, 0.00,60.00,Tuesday