Program Version,EnergyPlus, Version 9.0.1-bb7ca4f0da, YMD=2019.03.13 17:20
1,5,Environment Title[],Latitude[deg],Longitude[deg],Time Zone[],Elevation[m]
2,8,Day of Simulation[],Month[],Day of Month[],DST Indicator[1=yes 0=no],Hour[],StartMinute[],EndMinute[],DayType
3,5,Cumulative Day of Simulation[],Month[],Day of Month[],DST Indicator[1=yes 0=no],DayType  ! When Daily Meters Requested
4,2,Cumulative Days of Simulation[],Month[]  ! When Monthly Meters Requested
5,1,Cumulative Days of Simulation[] ! When Run Period Meters Requested
6,1,Calendar Year of Simulation[] ! When Annual Meters Requested
70,1,InteriorLights:Electricity [J] !Hourly
222,1,InteriorEquipment:Electricity [J] !Hourly
34,1,Electricity:Facility [J] !Hourly
967,1,ElectricityNet:Facility [J] !Hourly
1206,1,Gas:Facility [J] !Hourly
End of Data Dictionary
1,RUNPERIOD 1,  48.57, -93.40,  -6.00, 359.00
2,1, 1, 1, 0, 1, 0.00,60.00,Holiday
34,12879947.864378954
70,2923570.5965399087
222,2043510.819381642
967,12879947.864378954
1206,9571966.604143126
2,1, 1, 1, 0, 2, 0.00,60.00,Holiday
34,14232677.320929449
70,2923570.5965399087
222,2043510.819381642
967,14232677.320929449
1206,11254855.242321048
2,1, 1, 1, 0, 3, 0.00,60.00,Holiday
34,13404773.339927869
70,2923570.5965399087
222,2043510.819381642
967,13404773.339927869
1206,9443419.568528235
2,1, 1, 1, 0, 4, 0.00,60.00,Holiday
34,14232677.320929449
70,2923570.5965399087
222,2043510.819381642
967,14232677.320929449
1206,11088914.078353469
2,1, 1, 1, 0, 5, 0.00,60.00,Holiday
34,12819001.356086625
70,2923570.5965399087
222,2043510.819381642
967,12819001.356086625
1206,12758970.127791625
2,1, 1, 1, 0, 6, 0.00,60.00,Holiday
34,13956709.327262257
70,2923570.5965399087
222,2043510.819381642
967,13956709.327262257
1206,12603438.434736092
2,1, 1, 1, 0, 7, 0.00,60.00,Holiday
34,13958819.049199943
70,2923570.5965399087
222,2043510.819381642
967,13958819.049199943
1206,13716514.57076606
2,1, 1, 1, 0, 8, 0.00,60.00,Holiday
34,15069433.327262257
70,2923570.5965399087
222,2043510.819381642
967,15069433.327262257
1206,14146417.51977685
2,1, 1, 1, 0, 9, 0.00,60.00,Holiday
34,10466520.306159333
70,2758373.5107339096
222,2043510.819381642
967,10466520.30615933
1206,11155996.393854784
2,1, 1, 1, 0,10, 0.00,60.00,Holiday
34,9749632.127615657
70,2557556.2895339366
222,2043510.819381642
967,9749632.127615657
1206,8734076.166155365
2,1, 1, 1, 0,11, 0.00,60.00,Holiday
34,8854472.982795723
70,2551264.1469644389
222,2043510.819381642
967,8854472.982795723
1206,6578767.623924665
2,1, 1, 1, 0,12, 0.00,60.00,Holiday
34,9247030.106932752
70,2533972.545035651
222,2043510.819381642
967,9247030.106932752
1206,5815622.379637354
2,1, 1, 1, 0,13, 0.00,60.00,Holiday
34,9477347.742856503
70,2548107.777381593
222,2043510.819381642
967,9477347.742856503
1206,5900449.08809643
2,1, 1, 1, 0,14, 0.00,60.00,Holiday
34,9920819.213119412
70,2537165.268468706
222,2043510.819381642
967,9920819.213119412
1206,4218787.511172733
2,1, 1, 1, 0,15, 0.00,60.00,Holiday
34,8868517.5420878
70,2554733.125977514
222,2043510.819381642
967,8868517.5420878
1206,4275262.4157118429
2,1, 1, 1, 0,16, 0.00,60.00,Holiday
34,8939155.150599065
70,2618961.549006528
222,2043510.819381642
967,8939155.150599065
1206,4191713.276871655
2,1, 1, 1, 0,17, 0.00,60.00,Holiday
34,11487637.358230599
70,2893633.7331251709
222,2043510.819381642
967,11487637.358230599
1206,4969411.29416802
2,1, 1, 1, 0,18, 0.00,60.00,Holiday
34,13249523.769451134
70,2923570.5965399087
222,2043510.819381642
967,13249523.76945113
1206,4624182.148139864
2,1, 1, 1, 0,19, 0.00,60.00,Holiday
34,13002613.590574768
70,2923570.5965399087
222,2043510.819381642
967,13002613.590574768
1206,4806583.517910878
2,1, 1, 1, 0,20, 0.00,60.00,Holiday
34,13607607.230695649
70,2923570.5965399087
222,2043510.819381642
967,13607607.230695649
1206,6352448.134968794
2,1, 1, 1, 0,21, 0.00,60.00,Holiday
34,13238933.627028298
70,2923570.5965399087
222,2043510.819381642
967,13238933.627028294
1206,7180468.680575815
2,1, 1, 1, 0,22, 0.00,60.00,Holiday
34,13516084.4191705
70,2923570.5965399087
222,2043510.819381642
967,13516084.4191705
1206,7843612.185074938
2,1, 1, 1, 0,23, 0.00,60.00,Holiday
34,14006424.235420686
70,2923570.5965399087
222,2043510.819381642
967,14006424.235420686
1206,9478522.404518465
2,1, 1, 1, 0,24, 0.00,60.00,Holiday
34,14260909.728915742
70,2923570.5965399087
222,2043510.819381642
967,14260909.728915738
1206,8920648.014217064
2,2, 1, 2, 0, 1, 0.00,60.00,Monday
34,15822190.316074787
70,2923570.5965399087
222,5108777.048454104
967,15822190.316074785
1206,6708397.078914403
2,2, 1, 2, 0, 2, 0.00,60.00,Monday
34,16173760.425930253
70,2923570.5965399087
222,5108777.048454104
967,16173760.425930247
1206,5993674.221757696
2,2, 1, 2, 0, 3, 0.00,60.00,Monday
34,15854352.19923647
70,2923570.5965399087
222,5108777.048454104
967,15854352.199236472
1206,6038873.610169796
2,2, 1, 2, 0, 4, 0.00,60.00,Monday
34,16560091.5984738
70,2923570.5965399087
222,5108777.048454104
967,16560091.598473799
1206,6972895.992633065
2,2, 1, 2, 0, 5, 0.00,60.00,Monday
34,15819050.33869261
70,2923570.5965399087
222,5108777.048454104
967,15819050.33869261
1206,7376350.6562651139
2,2, 1, 2, 0, 6, 0.00,60.00,Monday
34,17319495.767607668
70,3735673.540023218
222,5108777.048454104
967,17319495.767607664
1206,5224306.613496704
2,2, 1, 2, 0, 7, 0.00,60.00,Monday
34,21126267.774822944
70,2901503.2420463429
222,5985552.087175781
967,21126267.774822944
1206,97798193.68076808
2,2, 1, 2, 0, 8, 0.00,60.00,Monday
34,23523161.757445244
70,5298397.224606365
222,5985552.087175781
967,23523161.757445244
1206,114503908.72534067
2,2, 1, 2, 0, 9, 0.00,60.00,Monday
34,32238269.04279326
70,10763952.4227786
222,11971104.174351562
967,32238269.042793249
1206,77844282.39653616
2,2, 1, 2, 0,10, 0.00,60.00,Monday
34,30852669.749084563
70,9925553.129069904
222,11971104.174351562
967,30852669.74908456
1206,56502393.19072473
2,2, 1, 2, 0,11, 0.00,60.00,Monday
34,30755277.85760706
70,9828161.237592407
222,11971104.174351562
967,30755277.85760706
1206,41410089.03914374
2,2, 1, 2, 0,12, 0.00,60.00,Monday
34,30725463.86847262
70,9798347.248457965
222,11971104.174351562
967,30725463.868472615
1206,31931045.82192369
2,2, 1, 2, 0,13, 0.00,60.00,Monday
34,28869822.945623068
70,8660972.576069508
222,11252837.923890466
967,28869822.945623064
1206,44455055.11413099
2,2, 1, 2, 0,14, 0.00,60.00,Monday
34,35762788.57988755
70,9656359.919113759
222,11971104.174351562
967,35762788.57988754
1206,14438120.951901032
2,2, 1, 2, 0,15, 0.00,60.00,Monday
34,42025648.01980737
70,9854820.193505988
222,11971104.174351562
967,42025648.01980735
1206,2257161.309193966
2,2, 1, 2, 0,16, 0.00,60.00,Monday
34,41757847.506355699
70,10415313.50243571
222,11971104.174351562
967,41757847.50635569
1206,6402127.703547546
2,2, 1, 2, 0,17, 0.00,60.00,Monday
34,34469624.95845687
70,11353708.338442214
222,11971104.174351562
967,34469624.95845687
1206,30624995.233514687
2,2, 1, 2, 0,18, 0.00,60.00,Monday
34,25920055.740005267
70,7695291.207166387
222,5985552.087175781
967,25920055.740005264
1206,63137147.89964101
2,2, 1, 2, 0,19, 0.00,60.00,Monday
34,19931830.50513977
70,5298397.224606365
222,2394220.834870312
967,19931830.50513977
1206,60811350.59658544
2,2, 1, 2, 0,20, 0.00,60.00,Monday
34,13931418.059538957
70,5298397.224606365
222,2394220.834870312
967,13931418.059538952
1206,0.0
2,2, 1, 2, 0,21, 0.00,60.00,Monday
34,12669894.910823152
70,4036874.0758905645
222,2394220.834870312
967,12669894.910823152
1206,0.0
2,2, 1, 2, 0,22, 0.00,60.00,Monday
34,12669894.910823152
70,4036874.0758905645
222,2394220.834870312
967,12669894.910823152
1206,0.0
2,2, 1, 2, 0,23, 0.00,60.00,Monday
34,11534524.076916654
70,2901503.2420463429
222,2394220.834870312
967,11534524.076916654
1206,0.0
2,2, 1, 2, 0,24, 0.00,60.00,Monday
34,11205881.415921549
70,2923570.5965399087
222,2043510.819381642
967,11205881.415921549
1206,0.0
2,3, 1, 3, 0, 1, 0.00,60.00,Tuesday
34,13158423.644994012
70,2923570.5965399087
222,5108777.048454104
967,13158423.64499401
1206,0.0
2,3, 1, 3, 0, 2, 0.00,60.00,Tuesday
34,13158423.644994012
70,2923570.5965399087
222,5108777.048454104
967,13158423.64499401
1206,0.0
2,3, 1, 3, 0, 3, 0.00,60.00,Tuesday
34,13158423.644994012
70,2923570.5965399087
222,5108777.048454104
967,13158423.64499401
1206,0.0
2,3, 1, 3, 0, 4, 0.00,60.00,Tuesday
34,13158423.644994012
70,2923570.5965399087
222,5108777.048454104
967,13158423.64499401
1206,0.0
2,3, 1, 3, 0, 5, 0.00,60.00,Tuesday
34,13158423.644994012
70,2923570.5965399087
222,5108777.048454104
967,13158423.64499401
1206,0.0
2,3, 1, 3, 0, 6, 0.00,60.00,Tuesday
34,13970526.588477325
70,3735673.540023218
222,5108777.048454104
967,13970526.588477325
1206,0.0
2,3, 1, 3, 0, 7, 0.00,60.00,Tuesday
34,40700843.87289397
70,2901503.2420463429
222,5985552.087175781
967,40700843.872893977
1206,31484953.635943906
2,3, 1, 3, 0, 8, 0.00,60.00,Tuesday
34,45417542.38396345
70,5298397.224606365
222,5985552.087175781
967,45417542.38396345
1206,41284944.50029377
2,3, 1, 3, 0, 9, 0.00,60.00,Tuesday
34,35956335.28211716
70,11004928.237649385
222,11971104.174351562
967,35956335.28211716
1206,47818473.30049212
2,3, 1, 3, 0,10, 0.00,60.00,Tuesday
34,30892990.649895986
70,9965874.029881327
222,11971104.174351562
967,30892990.64989598
1206,51507842.61442262
2,3, 1, 3, 0,11, 0.00,60.00,Tuesday
34,30462798.492809804
70,9535681.872795146
222,11971104.174351562
967,30462798.492809796
1206,47161166.88755446
2,3, 1, 3, 0,12, 0.00,60.00,Tuesday
34,30379335.272515034
70,9452218.65250038
222,11971104.174351562
967,30379335.27251503
1206,45981886.64519018
2,3, 1, 3, 0,13, 0.00,60.00,Tuesday
34,28608593.145847657
70,8399742.77629409
222,11252837.923890466
967,28608593.145847657
1206,67691684.12134685
2,3, 1, 3, 0,14, 0.00,60.00,Tuesday
34,30379335.272515034
70,9452218.65250038
222,11971104.174351562
967,30379335.27251503
1206,44643766.772615518
2,3, 1, 3, 0,15, 0.00,60.00,Tuesday
34,30654522.864194726
70,9727406.244180069
222,11971104.174351562
967,30654522.86419472
1206,43483424.28385872
2,3, 1, 3, 0,16, 0.00,60.00,Tuesday
34,31030893.58106813
70,10103776.961053465
222,11971104.174351562
967,31030893.581068115
1206,41513870.65329105
2,3, 1, 3, 0,17, 0.00,60.00,Tuesday
34,34355872.954028788
70,11239956.33401413
222,11971104.174351562
967,34355872.954028788
1206,46241610.00524176
2,3, 1, 3, 0,18, 0.00,60.00,Tuesday
34,25920055.740005267
70,7695291.207166387
222,5985552.087175781
967,25920055.740005264
1206,81686947.35918249
2,3, 1, 3, 0,19, 0.00,60.00,Tuesday
34,19931830.50513977
70,5298397.224606365
222,2394220.834870312
967,19931830.50513977
1206,75578105.3481318
2,3, 1, 3, 0,20, 0.00,60.00,Tuesday
34,13931418.059538957
70,5298397.224606365
222,2394220.834870312
967,13931418.059538952
1206,0.0
2,3, 1, 3, 0,21, 0.00,60.00,Tuesday
34,12669894.910823152
70,4036874.0758905645
222,2394220.834870312
967,12669894.910823152
1206,0.0
2,3, 1, 3, 0,22, 0.00,60.00,Tuesday
34,12669894.910823152
70,4036874.0758905645
222,2394220.834870312
967,12669894.910823152
1206,0.0
2,3, 1, 3, 0,23, 0.00,60.00,Tuesday
34,11534524.076916654
70,2901503.2420463429
222,2394220.834870312
967,11534524.076916654
1206,0.0
2,3, 1, 3, 0,24, 0.00,60.00,Tuesday
34,12840742.686877933
70,2923570.5965399087
222,2043510.819381642
967,12840742.686877933
1206,2898411.163019416
2,4, 1, 4, 0, 1, 0.00,60.00,Wednesday
34,15215848.308901139
70,2923570.5965399087
222,5108777.048454104
967,15215848.308901139
1206,3113034.925249513
2,4, 1, 4, 0, 2, 0.00,60.00,Wednesday
34,16023531.082757799
70,2923570.5965399087
222,5108777.048454104
967,16023531.082757798
1206,6184202.412078257
2,4, 1, 4, 0, 3, 0.00,60.00,Wednesday
34,16481998.022052814
70,2923570.5965399087
222,5108777.048454104
967,16481998.022052814
1206,10953953.359727595
2,4, 1, 4, 0, 4, 0.00,60.00,Wednesday
34,16704317.457714512
70,2923570.5965399087
222,5108777.048454104
967,16704317.45771451
1206,10595860.552997228
2,4, 1, 4, 0, 5, 0.00,60.00,Wednesday
34,16764807.331892889
70,2923570.5965399087
222,5108777.048454104
967,16764807.331892888
1206,11062907.746127543
2,4, 1, 4, 0, 6, 0.00,60.00,Wednesday
34,17499615.896670164
70,3735673.540023218
222,5108777.048454104
967,17499615.89667016
1206,13522739.085999936
2,4, 1, 4, 0, 7, 0.00,60.00,Wednesday
34,21126267.774822944
70,2901503.2420463429
222,5985552.087175781
967,21126267.774822944
1206,104220806.39427954
2,4, 1, 4, 0, 8, 0.00,60.00,Wednesday
34,23523161.757445244
70,5298397.224606365
222,5985552.087175781
967,23523161.757445244
1206,126776970.05535902
2,4, 1, 4, 0, 9, 0.00,60.00,Wednesday
34,32298512.996510954
70,10824196.376496297
222,11971104.174351562
967,32298512.996510947
1206,100950051.97385839
2,4, 1, 4, 0,10, 0.00,60.00,Wednesday
34,30855177.778254089
70,9928061.15823943
222,11971104.174351562
967,30855177.778254086
1206,84029461.9336364
2,4, 1, 4, 0,11, 0.00,60.00,Wednesday
34,30701769.80689667
70,9774653.18688202
222,11971104.174351562
967,30701769.806896669
1206,72005157.82965075
2,4, 1, 4, 0,12, 0.00,60.00,Wednesday
34,30379335.272515034
70,9452218.65250038
222,11971104.174351562
967,30379335.27251503
1206,65130870.05695538
2,4, 1, 4, 0,13, 0.00,60.00,Wednesday
34,28621969.30141846
70,8413118.931864899
222,11252837.923890466
967,28621969.301418459
1206,87123081.58375353
2,4, 1, 4, 0,14, 0.00,60.00,Wednesday
34,30639492.619008326
70,9712375.998993673
222,11971104.174351562
967,30639492.619008326
1206,55966902.54346351
2,4, 1, 4, 0,15, 0.00,60.00,Wednesday
34,30775200.910513339
70,9848084.290498678
222,11971104.174351562
967,30775200.910513339
1206,53848362.78423926
2,4, 1, 4, 0,16, 0.00,60.00,Wednesday
34,31033401.61023765
70,10106284.990222993
222,11971104.174351562
967,31033401.61023764
1206,53934312.55855562
2,4, 1, 4, 0,17, 0.00,60.00,Wednesday
34,34299856.874148879
70,11183940.254134218
222,11971104.174351562
967,34299856.87414887
1206,58678034.00580321
2,4, 1, 4, 0,18, 0.00,60.00,Wednesday
34,25920055.740005267
70,7695291.207166387
222,5985552.087175781
967,25920055.740005264
1206,92638760.97167851
2,4, 1, 4, 0,19, 0.00,60.00,Wednesday
34,19931830.50513977
70,5298397.224606365
222,2394220.834870312
967,19931830.50513977
1206,92331196.86357777
2,4, 1, 4, 0,20, 0.00,60.00,Wednesday
34,13931418.059538957
70,5298397.224606365
222,2394220.834870312
967,13931418.059538952
1206,0.0
2,4, 1, 4, 0,21, 0.00,60.00,Wednesday
34,12669894.910823152
70,4036874.0758905645
222,2394220.834870312
967,12669894.910823152
1206,0.0
2,4, 1, 4, 0,22, 0.00,60.00,Wednesday
34,12669894.910823152
70,4036874.0758905645
222,2394220.834870312
967,12669894.910823152
1206,0.0
2,4, 1, 4, 0,23, 0.00,60.00,Wednesday
34,13212342.949075137
70,2901503.2420463429
222,2394220.834870312
967,13212342.949075135
1206,3688552.9694584256
2,4, 1, 4, 0,24, 0.00,60.00,Wednesday
34,14877507.881902438
70,2923570.5965399087
222,2043510.819381642
967,14877507.881902438
1206,7349446.75722547
2,5, 1, 5, 0, 1, 0.00,60.00,Thursday
34,15809293.153977689
70,2923570.5965399087
222,5108777.048454104
967,15809293.153977689
1206,6319629.462749151
2,5, 1, 5, 0, 2, 0.00,60.00,Thursday
34,16381413.390229779
70,2923570.5965399087
222,5108777.048454104
967,16381413.390229775
1206,8533810.720462362
2,5, 1, 5, 0, 3, 0.00,60.00,Thursday
34,16021514.438693338
70,2923570.5965399087
222,5108777.048454104
967,16021514.438693336
1206,9930999.00112038
2,5, 1, 5, 0, 4, 0.00,60.00,Thursday
34,16504612.708806536
70,2923570.5965399087
222,5108777.048454104
967,16504612.708806532
1206,10134704.116694171
2,5, 1, 5, 0, 5, 0.00,60.00,Thursday
34,16037259.704859836
70,2923570.5965399087
222,5108777.048454104
967,16037259.704859836
1206,10047191.817816582
2,5, 1, 5, 0, 6, 0.00,60.00,Thursday
34,17604208.02589244
70,3735673.540023218
222,5108777.048454104
967,17604208.02589244
1206,11460757.412186664
2,5, 1, 5, 0, 7, 0.00,60.00,Thursday
34,21126267.774822944
70,2901503.2420463429
222,5985552.087175781
967,21126267.774822944
1206,104147102.1396604
2,5, 1, 5, 0, 8, 0.00,60.00,Thursday
34,23523161.757445244
70,5298397.224606365
222,5985552.087175781
967,23523161.757445244
1206,130364771.09299493
2,5, 1, 5, 0, 9, 0.00,60.00,Thursday
34,32186480.836751127
70,10712164.21673647
222,11971104.174351562
967,32186480.83675112
1206,105042055.79867855
2,5, 1, 5, 0,10, 0.00,60.00,Thursday
34,30962478.535790519
70,10035361.915775858
222,11971104.174351562
967,30962478.535790516
1206,81994043.74291274
2,5, 1, 5, 0,11, 0.00,60.00,Thursday
34,30834970.06923216
70,9907853.4492175
222,11971104.174351562
967,30834970.069232156
1206,67295417.97610997
2,5, 1, 5, 0,12, 0.00,60.00,Thursday
34,30810172.138436773
70,9883055.518422114
222,11971104.174351562
967,30810172.138436766
1206,57928223.91899691
2,5, 1, 5, 0,13, 0.00,60.00,Thursday
34,29042583.524444067
70,8833733.154890508
222,11252837.923890466
967,29042583.524444067
1206,78767401.15913041
2,5, 1, 5, 0,14, 0.00,60.00,Thursday
34,30842494.15674074
70,9915377.53672608
222,11971104.174351562
967,30842494.156740734
1206,47489354.61892097
2,5, 1, 5, 0,15, 0.00,60.00,Thursday
34,30859405.652091873
70,9932289.032077212
222,11971104.174351562
967,30859405.65209187
1206,43950925.4556506
2,5, 1, 5, 0,16, 0.00,60.00,Thursday
34,31180738.612469853
70,10253621.992455189
222,11971104.174351562
967,31180738.612469835
1206,45688180.62139574
2,5, 1, 5, 0,17, 0.00,60.00,Thursday
34,34241332.765099439
70,11125416.145084778
222,11971104.174351562
967,34241332.76509943
1206,53304454.370976287
2,5, 1, 5, 0,18, 0.00,60.00,Thursday
34,25920055.740005267
70,7695291.207166387
222,5985552.087175781
967,25920055.740005264
1206,90488029.81291421
2,5, 1, 5, 0,19, 0.00,60.00,Thursday
34,19931830.50513977
70,5298397.224606365
222,2394220.834870312
967,19931830.50513977
1206,87953936.07799554
2,5, 1, 5, 0,20, 0.00,60.00,Thursday
34,13931418.059538957
70,5298397.224606365
222,2394220.834870312
967,13931418.059538952
1206,0.0
2,5, 1, 5, 0,21, 0.00,60.00,Thursday
34,12669894.910823152
70,4036874.0758905645
222,2394220.834870312
967,12669894.910823152
1206,0.0
2,5, 1, 5, 0,22, 0.00,60.00,Thursday
34,12669894.910823152
70,4036874.0758905645
222,2394220.834870312
967,12669894.910823152
1206,0.0
2,5, 1, 5, 0,23, 0.00,60.00,Thursday
34,11534524.076916654
70,2901503.2420463429
222,2394220.834870312
967,11534524.076916654
1206,0.0
2,5, 1, 5, 0,24, 0.00,60.00,Thursday
34,11205881.415921549
70,2923570.5965399087
222,2043510.819381642
967,11205881.415921549
1206,0.0
2,6, 1, 6, 0, 1, 0.00,60.00,Friday
34,13401408.987792176
70,2923570.5965399087
222,5108777.048454104
967,13401408.987792176
1206,466630.3515058139
2,6, 1, 6, 0, 2, 0.00,60.00,Friday
34,14126898.717856963
70,2923570.5965399087
222,5108777.048454104
967,14126898.717856959
1206,1641084.8195417589
2,6, 1, 6, 0, 3, 0.00,60.00,Friday
34,15510301.1455014
70,2923570.5965399087
222,5108777.048454104
967,15510301.145501396
1206,3268685.1960887059
2,6, 1, 6, 0, 4, 0.00,60.00,Friday
34,14233695.754222023
70,2923570.5965399087
222,5108777.048454104
967,14233695.754222023
1206,1415606.4303012693
2,6, 1, 6, 0, 5, 0.00,60.00,Friday
34,15835085.502842896
70,2923570.5965399087
222,5108777.048454104
967,15835085.502842894
1206,7288728.969744612
2,6, 1, 6, 0, 6, 0.00,60.00,Friday
34,17490453.44754045
70,3735673.540023218
222,5108777.048454104
967,17490453.447540448
1206,6290947.826780995
2,6, 1, 6, 0, 7, 0.00,60.00,Friday
34,21126267.774822944
70,2901503.2420463429
222,5985552.087175781
967,21126267.774822944
1206,99574717.05406873
2,6, 1, 6, 0, 8, 0.00,60.00,Friday
34,23523161.757445244
70,5298397.224606365
222,5985552.087175781
967,23523161.757445244
1206,131062219.81858653
2,6, 1, 6, 0, 9, 0.00,60.00,Friday
34,32242496.916631037
70,10768180.296616383
222,11971104.174351562
967,32242496.91663103
1206,106992889.63867603
2,6, 1, 6, 0,10, 0.00,60.00,Friday
34,30852669.749084563
70,9925553.129069904
222,11971104.174351562
967,30852669.74908456
1206,84295518.83829007
2,6, 1, 6, 0,11, 0.00,60.00,Friday
34,30795123.96341961
70,9868007.343404955
222,11971104.174351562
967,30795123.96341961
1206,64892990.41871765
2,6, 1, 6, 0,12, 0.00,60.00,Friday
34,30722955.83930309
70,9795839.219288437
222,11971104.174351562
967,30722955.839303089
1206,54211718.60924463
2,6, 1, 6, 0,13, 0.00,60.00,Friday
34,28823257.388591794
70,8614407.019038234
222,11252837.923890466
967,28823257.38859179
1206,72507499.54135198
2,6, 1, 6, 0,14, 0.00,60.00,Friday
34,30715431.751794515
70,9788315.131779859
222,11971104.174351562
967,30715431.751794515
1206,39800745.60452217
2,6, 1, 6, 0,15, 0.00,60.00,Friday
34,30815047.016325885
70,9887930.396311226
222,11971104.174351562
967,30815047.016325885
1206,36831490.9211633
2,6, 1, 6, 0,16, 0.00,60.00,Friday
34,31037629.484075436
70,10110512.864060775
222,11971104.174351562
967,31037629.48407543
1206,40728215.35636356
2,6, 1, 6, 0,17, 0.00,60.00,Friday
34,34355872.954028788
70,11239956.33401413
222,11971104.174351562
967,34355872.954028788
1206,46773911.8758273
2,6, 1, 6, 0,18, 0.00,60.00,Friday
34,25920055.740005267
70,7695291.207166387
222,5985552.087175781
967,25920055.740005264
1206,84621737.68162486
2,6, 1, 6, 0,19, 0.00,60.00,Friday
34,19931830.50513977
70,5298397.224606365
222,2394220.834870312
967,19931830.50513977
1206,79508790.76734665
2,6, 1, 6, 0,20, 0.00,60.00,Friday
34,13931418.059538957
70,5298397.224606365
222,2394220.834870312
967,13931418.059538952
1206,0.0
2,6, 1, 6, 0,21, 0.00,60.00,Friday
34,12669894.910823152
70,4036874.0758905645
222,2394220.834870312
967,12669894.910823152
1206,0.0
2,6, 1, 6, 0,22, 0.00,60.00,Friday
34,12669894.910823152
70,4036874.0758905645
222,2394220.834870312
967,12669894.910823152
1206,0.0
2,6, 1, 6, 0,23, 0.00,60.00,Friday
34,11534524.076916654
70,2901503.2420463429
222,2394220.834870312
967,11534524.076916654
1206,0.0
2,6, 1, 6, 0,24, 0.00,60.00,Friday
34,11205881.415921549
70,2923570.5965399087
222,2043510.819381642
967,11205881.415921549
1206,0.0
2,7, 1, 7, 0, 1, 0.00,60.00,Saturday
34,11442022.52866672
70,2923570.5965399087
222,2043510.819381642
967,11442022.528666718
1206,1887264.2249933137
2,7, 1, 7, 0, 2, 0.00,60.00,Saturday
34,12374422.59332563
70,2923570.5965399087
222,2043510.819381642
967,12374422.59332563
1206,5323552.324054164
2,7, 1, 7, 0, 3, 0.00,60.00,Saturday
34,13617895.713667235
70,2923570.5965399087
222,2043510.819381642
967,13617895.713667233
1206,7432071.332808453
2,7, 1, 7, 0, 4, 0.00,60.00,Saturday
34,12957882.312375393
70,2923570.5965399087
222,2043510.819381642
967,12957882.312375393
1206,9663229.02806533
2,7, 1, 7, 0, 5, 0.00,60.00,Saturday
34,13726838.853336666
70,2923570.5965399087
222,2043510.819381642
967,13726838.853336666
1206,10073159.211646039
2,7, 1, 7, 0, 6, 0.00,60.00,Saturday
34,13531232.956826065
70,2923570.5965399087
222,2043510.819381642
967,13531232.956826063
1206,10097698.820663535
2,7, 1, 7, 0, 7, 0.00,60.00,Saturday
34,14839562.853336666
70,2923570.5965399087
222,2043510.819381642
967,14839562.853336666
1206,10574117.389759059
2,7, 1, 7, 0, 8, 0.00,60.00,Saturday
34,13402842.558375337
70,2923570.5965399087
222,2043510.819381642
967,13402842.558375335
1206,4109949.979603274
2,7, 1, 7, 0, 9, 0.00,60.00,Saturday
34,10657689.588972457
70,2909792.317314135
222,2043510.819381642
967,10657689.588972455
1206,2368437.7237931007
2,7, 1, 7, 0,10, 0.00,60.00,Saturday
34,9440137.626425909
70,2670463.4219932637
222,2043510.819381642
967,9440137.626425909
1206,2470144.7594685095
2,7, 1, 7, 0,11, 0.00,60.00,Saturday
34,8473499.521486339
70,2490700.260988372
222,2043510.819381642
967,8473499.521486339
1206,1052022.9993270543
2,7, 1, 7, 0,12, 0.00,60.00,Saturday
34,7572141.435521832
70,2434584.375508456
222,2043510.819381642
967,7572141.435521829
1206,0.0
2,7, 1, 7, 0,13, 0.00,60.00,Saturday
34,7436924.272173362
70,2437813.452791719
222,2043510.819381642
967,7436924.272173359
1206,0.0
2,7, 1, 7, 0,14, 0.00,60.00,Saturday
34,7434986.825803403
70,2435876.0064217618
222,2043510.819381642
967,7434986.825803401
1206,0.0
2,7, 1, 7, 0,15, 0.00,60.00,Saturday
34,7490131.679639972
70,2491020.860258331
222,2043510.819381642
967,7490131.679639971
1206,0.0
2,7, 1, 7, 0,16, 0.00,60.00,Saturday
34,7585958.156873662
70,2586847.3374920214
222,2043510.819381642
967,7585958.156873662
1206,0.0
2,7, 1, 7, 0,17, 0.00,60.00,Saturday
34,10082190.367963465
70,2894279.5485818239
222,2043510.819381642
967,10082190.367963465
1206,0.0
2,7, 1, 7, 0,18, 0.00,60.00,Saturday
34,11755090.239373634
70,2923570.5965399087
222,2043510.819381642
967,11755090.239373634
1206,1630707.2192872796
2,7, 1, 7, 0,19, 0.00,60.00,Saturday
34,12953754.273969694
70,2923570.5965399087
222,2043510.819381642
967,12953754.273969695
1206,3117062.480803391
2,7, 1, 7, 0,20, 0.00,60.00,Saturday
34,13481481.155491937
70,2923570.5965399087
222,2043510.819381642
967,13481481.155491937
1206,5921411.889585297
2,7, 1, 7, 0,21, 0.00,60.00,Saturday
34,14014356.01567119
70,2923570.5965399087
222,2043510.819381642
967,14014356.015671188
1206,5222002.030049287
2,7, 1, 7, 0,22, 0.00,60.00,Saturday
34,14209215.155402774
70,2923570.5965399087
222,2043510.819381642
967,14209215.155402774
1206,7681812.290966848
2,7, 1, 7, 0,23, 0.00,60.00,Saturday
34,14272434.977034817
70,2923570.5965399087
222,2043510.819381642
967,14272434.977034817
1206,6863676.752705931
2,7, 1, 7, 0,24, 0.00,60.00,Saturday
34,14368634.95112946
70,2923570.5965399087
222,2043510.819381642
967,14368634.95112946
1206,9743405.305768524
2,8, 1, 8, 0, 1, 0.00,60.00,Sunday
34,13161755.081534576
70,2923570.5965399087
222,2043510.819381642
967,13161755.081534576
1206,8349993.2720632529
2,8, 1, 8, 0, 2, 0.00,60.00,Sunday
34,13584946.697728303
70,2923570.5965399087
222,2043510.819381642
967,13584946.6977283
1206,11350456.411199134
2,8, 1, 8, 0, 3, 0.00,60.00,Sunday
34,13486492.727812812
70,2923570.5965399087
222,2043510.819381642
967,13486492.727812812
1206,8885105.739160544
2,8, 1, 8, 0, 4, 0.00,60.00,Sunday
34,13579382.750143966
70,2923570.5965399087
222,2043510.819381642
967,13579382.750143966
1206,11659821.742650843
2,8, 1, 8, 0, 5, 0.00,60.00,Sunday
34,13334114.710526092
70,2923570.5965399087
222,2043510.819381642
967,13334114.71052609
1206,10468029.049479813
2,8, 1, 8, 0, 6, 0.00,60.00,Sunday
34,13589733.947059649
70,2923570.5965399087
222,2043510.819381642
967,13589733.947059649
1206,13371384.075366524
2,8, 1, 8, 0, 7, 0.00,60.00,Sunday
34,14424470.483772003
70,2923570.5965399087
222,2043510.819381642
967,14424470.483772003
1206,11112403.702947606
2,8, 1, 8, 0, 8, 0.00,60.00,Sunday
34,14727681.5982452
70,2923570.5965399087
222,2043510.819381642
967,14727681.5982452
1206,14157603.955940605
2,8, 1, 8, 0, 9, 0.00,60.00,Sunday
34,11475171.692785388
70,2759665.141647215
222,2043510.819381642
967,11475171.692785388
1206,11214955.192831878
2,8, 1, 8, 0,10, 0.00,60.00,Sunday
34,10261006.520375675
70,2543826.970914836
222,2043510.819381642
967,10261006.520375675
1206,8903969.271653772
2,8, 1, 8, 0,11, 0.00,60.00,Sunday
34,9608640.707530354
70,2451266.5158308
222,2043510.819381642
967,9608640.707530354
1206,7070391.97185229
2,8, 1, 8, 0,12, 0.00,60.00,Sunday
34,9882127.838119209
70,2433938.5600518037
222,2043510.819381642
967,9882127.838119209
1206,6914193.323542604
2,8, 1, 8, 0,13, 0.00,60.00,Sunday
34,9610954.567422616
70,2433938.5600518037
222,2043510.819381642
967,9610954.567422614
1206,5890942.529669363
2,8, 1, 8, 0,14, 0.00,60.00,Sunday
34,9569549.592484314
70,2433938.560051803
222,2043510.819381642
967,9569549.592484314
1206,6832781.704326301
2,8, 1, 8, 0,15, 0.00,60.00,Sunday
34,9669535.010247766
70,2494538.799878079
222,2043510.819381642
967,9669535.010247767
1206,4626371.475126715
2,8, 1, 8, 0,16, 0.00,60.00,Sunday
34,9043509.643120029
70,2596584.1209646675
222,2043510.819381642
967,9043509.643120029
1206,5462616.574654706
2,8, 1, 8, 0,17, 0.00,60.00,Sunday
34,12015242.430833737
70,2864785.543760318
222,2043510.819381642
967,12015242.430833737
1206,6782443.1814699959
2,8, 1, 8, 0,18, 0.00,60.00,Sunday
34,14221264.53130819
70,2923570.5965399087
222,2043510.819381642
967,14221264.53130819
1206,7918140.56846727
2,8, 1, 8, 0,19, 0.00,60.00,Sunday
34,13924204.07062919
70,2923570.5965399087
222,2043510.819381642
967,13924204.07062919
1206,9565424.47591051
2,8, 1, 8, 0,20, 0.00,60.00,Sunday
34,15086250.208557057
70,2923570.5965399087
222,2043510.819381642
967,15086250.208557057
1206,10354130.435358774
2,8, 1, 8, 0,21, 0.00,60.00,Sunday
34,14259761.26871642
70,2923570.5965399087
222,2043510.819381642
967,14259761.26871642
1206,13222275.174470364
2,8, 1, 8, 0,22, 0.00,60.00,Sunday
34,14779858.931488257
70,2923570.5965399087
222,2043510.819381642
967,14779858.931488257
1206,15668360.731973097
2,8, 1, 8, 0,23, 0.00,60.00,Sunday
34,14237226.324658726
70,2923570.5965399087
222,2043510.819381642
967,14237226.324658726
1206,15285795.281580497
2,8, 1, 8, 0,24, 0.00,60.00,Sunday
34,14779250.504840453
70,2923570.5965399087
222,2043510.819381642
967,14779250.504840453
1206,15820207.766654356
2,9, 1, 9, 0, 1, 0.00,60.00,Monday
34,16200750.72468356
70,2923570.5965399087
222,5108777.048454104
967,16200750.72468356
1206,13030129.44959052
2,9, 1, 9, 0, 2, 0.00,60.00,Monday
34,16746045.265966982
70,2923570.5965399087
222,5108777.048454104
967,16746045.265966982
1206,13326348.420795942
2,9, 1, 9, 0, 3, 0.00,60.00,Monday
34,16217902.849450479
70,2923570.5965399087
222,5108777.048454104
967,16217902.849450477
1206,13872701.553686794
2,9, 1, 9, 0, 4, 0.00,60.00,Monday
34,16747028.65097248
70,2923570.5965399087
222,5108777.048454104
967,16747028.65097248
1206,15943087.37012161
2,9, 1, 9, 0, 5, 0.00,60.00,Monday
34,16199260.444367595
70,2923570.5965399087
222,5108777.048454104
967,16199260.444367594
1206,16718225.567715466
2,9, 1, 9, 0, 6, 0.00,60.00,Monday
34,17482070.929972724
70,3735673.540023218
222,5108777.048454104
967,17482070.929972724
1206,17682769.382035208
2,9, 1, 9, 0, 7, 0.00,60.00,Monday
34,21126267.774822944
70,2901503.2420463429
222,5985552.087175781
967,21126267.774822944
1206,111557621.59386659
2,9, 1, 9, 0, 8, 0.00,60.00,Monday
34,23523161.757445244
70,5298397.224606365
222,5985552.087175781
967,23523161.757445244
1206,132839906.43641919
2,9, 1, 9, 0, 9, 0.00,60.00,Monday
34,32130464.756871217
70,10656148.136856558
222,11971104.174351562