Program Version,EnergyPlus, Version 9.0.1-bb7ca4f0da, YMD=2019.03.13 17:18
1,5,Environment Title[],Latitude[deg],Longitude[deg],Time Zone[],Elevation[m]
2,8,Day of Simulation[],Month[],Day of Month[],DST Indicator[1=yes 0=no],Hour[],StartMinute[],EndMinute[],DayType
3,5,Cumulative Day of Simulation[],Month[],Day of Month[],DST Indicator[1=yes 0=no],DayType  ! When Daily Meters Requested
4,2,Cumulative Days of Simulation[],Month[]  ! When Monthly Meters Requested
5,1,Cumulative Days of Simulation[] ! When Run Period Meters Requested
6,1,Calendar Year of Simulation[] ! When Annual Meters Requested
70,1,InteriorLights:Electricity [J] !Hourly
222,1,InteriorEquipment:Electricity [J] !Hourly
34,1,Electricity:Facility [J] !Hourly
967,1,ElectricityNet:Facility [J] !Hourly
1206,1,Gas:Facility [J] !Hourly
End of Data Dictionary
1,RUNPERIOD 1,  27.85, -82.52,  -5.00,   8.00
2,1, 1, 1, 0, 1, 0.00,60.00,Holiday
34,9193157.415921549
70,2923570.5965399087
222,2043510.819381642
967,9193157.415921549
1206,0.0
2,1, 1, 1, 0, 2, 0.00,60.00,Holiday
34,9193157.415921549
70,2923570.5965399087
222,2043510.819381642
967,9193157.415921549
1206,0.0
2,1, 1, 1, 0, 3, 0.00,60.00,Holiday
34,9193157.415921549
70,2923570.5965399087
222,2043510.819381642
967,9193157.415921549
1206,0.0
2,1, 1, 1, 0, 4, 0.00,60.00,Holiday
34,9193157.415921549
70,2923570.5965399087
222,2043510.819381642
967,9193157.415921549
1206,0.0
2,1, 1, 1, 0, 5, 0.00,60.00,Holiday
34,9193157.415921549
70,2923570.5965399087
222,2043510.819381642
967,9193157.415921549
1206,0.0
2,1, 1, 1, 0, 6, 0.00,60.00,Holiday
34,9193157.415921549
70,2923570.5965399087
222,2043510.819381642
967,9193157.415921549
1206,0.0
2,1, 1, 1, 0, 7, 0.00,60.00,Holiday
34,10305881.415921549
70,2923570.5965399087
222,2043510.819381642
967,10305881.415921549
1206,0.0
2,1, 1, 1, 0, 8, 0.00,60.00,Holiday
34,8048486.2809527129
70,2854975.4615710729
222,2043510.819381642
967,8048486.2809527129
1206,0.0
2,1, 1, 1, 0, 9, 0.00,60.00,Holiday
34,6739933.6391202
70,2640822.819738558
222,2043510.819381642
967,6739933.6391202
1206,0.0
2,1, 1, 1, 0,10, 0.00,60.00,Holiday
34,6660136.087928653
70,2561025.2685470117
222,2043510.819381642
967,6660136.087928651
1206,0.0
2,1, 1, 1, 0,11, 0.00,60.00,Holiday
34,6651020.7818027329
70,2551909.9624210915
222,2043510.819381642
967,6651020.7818027329
1206,0.0
2,1, 1, 1, 0,12, 0.00,60.00,Holiday
34,6681062.680867544
70,2581951.861485904
222,2043510.819381642
967,6681062.680867544
1206,0.0
2,1, 1, 1, 0,13, 0.00,60.00,Holiday
34,6783919.829407815
70,2684809.010026174
222,2043510.819381642
967,6783919.829407814
1206,0.0
2,1, 1, 1, 0,14, 0.00,60.00,Holiday
34,6752813.594403044
70,2653702.775021404
222,2043510.819381642
967,6752813.594403044
1206,0.0
2,1, 1, 1, 0,15, 0.00,60.00,Holiday
34,6716545.452661787
70,2617434.633280146
222,2043510.819381642
967,6716545.452661787
1206,0.0
2,1, 1, 1, 0,16, 0.00,60.00,Holiday
34,6696986.571259613
70,2597875.7518779726
222,2043510.819381642
967,6696986.571259613
1206,0.0
2,1, 1, 1, 0,17, 0.00,60.00,Holiday
34,6755113.792842269
70,2656002.973460628
222,2043510.819381642
967,6755113.792842268
1206,0.0
2,1, 1, 1, 0,18, 0.00,60.00,Holiday
34,8074775.546600883
70,2881264.727219241
222,2043510.819381642
967,8074775.546600882
1206,0.0
2,1, 1, 1, 0,19, 0.00,60.00,Holiday
34,10305881.415921549
70,2923570.5965399087
222,2043510.819381642
967,10305881.415921549
1206,0.0
2,1, 1, 1, 0,20, 0.00,60.00,Holiday
34,10305881.415921549
70,2923570.5965399087
222,2043510.819381642
967,10305881.415921549
1206,0.0
2,1, 1, 1, 0,21, 0.00,60.00,Holiday
34,10305881.415921549
70,2923570.5965399087
222,2043510.819381642
967,10305881.415921549
1206,0.0
2,1, 1, 1, 0,22, 0.00,60.00,Holiday
34,10305881.415921549
70,2923570.5965399087
222,2043510.819381642
967,10305881.415921549
1206,0.0
2,1, 1, 1, 0,23, 0.00,60.00,Holiday
34,10305881.415921549
70,2923570.5965399087
222,2043510.819381642
967,10305881.415921549
1206,0.0
2,1, 1, 1, 0,24, 0.00,60.00,Holiday
34,10305881.415921549
70,2923570.5965399087
222,2043510.819381642
967,10305881.415921549
1206,0.0
2,2, 1, 2, 0, 1, 0.00,60.00,Monday
34,12258423.644994012
70,2923570.5965399087
222,5108777.048454104
967,12258423.644994012
1206,0.0
2,2, 1, 2, 0, 2, 0.00,60.00,Monday
34,12258423.644994012
70,2923570.5965399087
222,5108777.048454104
967,12258423.644994012
1206,0.0
2,2, 1, 2, 0, 3, 0.00,60.00,Monday
34,12258423.644994012
70,2923570.5965399087
222,5108777.048454104
967,12258423.644994012
1206,0.0
2,2, 1, 2, 0, 4, 0.00,60.00,Monday
34,12258423.644994012
70,2923570.5965399087
222,5108777.048454104
967,12258423.644994012
1206,0.0
2,2, 1, 2, 0, 5, 0.00,60.00,Monday
34,12258423.644994012
70,2923570.5965399087
222,5108777.048454104
967,12258423.644994012
1206,0.0
2,2, 1, 2, 0, 6, 0.00,60.00,Monday
34,13070526.588477325
70,3735673.540023218
222,5108777.048454104
967,13070526.58847732
1206,0.0
2,2, 1, 2, 0, 7, 0.00,60.00,Monday
34,20214716.19173652
70,2901503.2420463429
222,5985552.087175781
967,20214716.191736513
1206,0.0
2,2, 1, 2, 0, 8, 0.00,60.00,Monday
34,20350896.52371682
70,5298397.224606365
222,5985552.087175781
967,20350896.523716816
1206,0.0
2,2, 1, 2, 0, 9, 0.00,60.00,Monday
34,31668490.034013969
70,10657706.576028334
222,11971104.174351562
967,31668490.034013966
1206,0.0
2,2, 1, 2, 0,10, 0.00,60.00,Monday
34,33898467.91442104
70,9929781.002907686
222,11971104.174351562
967,33898467.91442104
1206,0.0
2,2, 1, 2, 0,11, 0.00,60.00,Monday
34,36215652.90760825
70,9891511.26609768
222,11971104.174351562
967,36215652.90760825
1206,0.0
2,2, 1, 2, 0,12, 0.00,60.00,Monday
34,37994418.60234819
70,9807591.1806348
222,11971104.174351562
967,37994418.60234819
1206,0.0
2,2, 1, 2, 0,13, 0.00,60.00,Monday
34,36085620.50478172
70,8800924.315013485
222,11252837.923890466
967,36085620.50478172
1206,0.0
2,2, 1, 2, 0,14, 0.00,60.00,Monday
34,39403772.95738793
70,9827514.233541076
222,11971104.174351562
967,39403772.95738793
1206,0.0
2,2, 1, 2, 0,15, 0.00,60.00,Monday
34,39642847.037534359
70,10342937.309605213
222,11971104.174351562
967,39642847.037534359
1206,0.0
2,2, 1, 2, 0,16, 0.00,60.00,Monday
34,39589423.16894333
70,10424226.11527939
222,11971104.174351562
967,39589423.16894333
1206,0.0
2,2, 1, 2, 0,17, 0.00,60.00,Monday
34,39821527.96451181
70,10289478.217328104
222,11971104.174351562
967,39821527.96451181
1206,0.0
2,2, 1, 2, 0,18, 0.00,60.00,Monday
34,27622548.687822686
70,7583935.598179158
222,5985552.087175781
967,27622548.687822679
1206,0.0
2,2, 1, 2, 0,19, 0.00,60.00,Monday
34,18948365.271411349
70,5298397.224606365
222,2394220.834870312
967,18948365.271411349
1206,0.0
2,2, 1, 2, 0,20, 0.00,60.00,Monday
34,13031418.059538957
70,5298397.224606365
222,2394220.834870312
967,13031418.059538952
1206,0.0
2,2, 1, 2, 0,21, 0.00,60.00,Monday
34,11769894.910823154
70,4036874.0758905645
222,2394220.834870312
967,11769894.910823152
1206,0.0
2,2, 1, 2, 0,22, 0.00,60.00,Monday
34,11769894.910823154
70,4036874.0758905645
222,2394220.834870312
967,11769894.910823152
1206,0.0
2,2, 1, 2, 0,23, 0.00,60.00,Monday
34,10634524.076916654
70,2901503.2420463429
222,2394220.834870312
967,10634524.076916654
1206,0.0
2,2, 1, 2, 0,24, 0.00,60.00,Monday
34,10305881.415921549
70,2923570.5965399087
222,2043510.819381642
967,10305881.415921549
1206,0.0
2,3, 1, 3, 0, 1, 0.00,60.00,Tuesday
34,12258423.644994012
70,2923570.5965399087
222,5108777.048454104
967,12258423.644994012
1206,0.0
2,3, 1, 3, 0, 2, 0.00,60.00,Tuesday
34,12258423.644994012
70,2923570.5965399087
222,5108777.048454104
967,12258423.644994012
1206,0.0
2,3, 1, 3, 0, 3, 0.00,60.00,Tuesday
34,12258423.644994012
70,2923570.5965399087
222,5108777.048454104
967,12258423.644994012
1206,0.0
2,3, 1, 3, 0, 4, 0.00,60.00,Tuesday
34,12258423.644994012
70,2923570.5965399087
222,5108777.048454104
967,12258423.644994012
1206,0.0
2,3, 1, 3, 0, 5, 0.00,60.00,Tuesday
34,12558423.644994012
70,2923570.5965399087
222,5108777.048454104
967,12558423.644994012
1206,0.0
2,3, 1, 3, 0, 6, 0.00,60.00,Tuesday
34,13970526.588477325
70,3735673.540023218
222,5108777.048454104
967,13970526.588477325
1206,0.0
2,3, 1, 3, 0, 7, 0.00,60.00,Tuesday
34,26970675.88422525
70,2901503.2420463429
222,5985552.087175781
967,26970675.884225247
1206,0.0
2,3, 1, 3, 0, 8, 0.00,60.00,Tuesday
34,28429672.34401269
70,5183379.446108966
222,5985552.087175781
967,28429672.34401268
1206,0.0
2,3, 1, 3, 0, 9, 0.00,60.00,Tuesday
34,30702489.75840262
70,10289240.224429956
222,11971104.174351562
967,30702489.75840262
1206,0.0
2,3, 1, 3, 0,10, 0.00,60.00,Tuesday
34,30212968.55780991
70,10269317.17152368
222,11971104.174351562
967,30212968.5578099
1206,0.0
2,3, 1, 3, 0,11, 0.00,60.00,Tuesday
34,30341461.073372969
70,10090132.945986392
222,11971104.174351562
967,30341461.073372969
1206,0.0
2,3, 1, 3, 0,12, 0.00,60.00,Tuesday
34,31121445.77411692
70,10067948.365148943
222,11971104.174351562
967,31121445.774116916
1206,0.0
2,3, 1, 3, 0,13, 0.00,60.00,Tuesday
34,28147770.122317845
70,8869151.915612773
222,11252837.923890466
967,28147770.122317845
1206,0.0
2,3, 1, 3, 0,14, 0.00,60.00,Tuesday
34,31960881.733923627
70,9845717.441779092
222,11971104.174351562
967,31960881.733923627
1206,0.0
2,3, 1, 3, 0,15, 0.00,60.00,Tuesday
34,32566413.871610427
70,9918817.226062594
222,11971104.174351562
967,32566413.87161042
1206,0.0
2,3, 1, 3, 0,16, 0.00,60.00,Tuesday
34,32079707.15015473
70,9958444.459605184
222,11971104.174351562
967,32079707.15015472
1206,0.0
2,3, 1, 3, 0,17, 0.00,60.00,Tuesday
34,31805603.75973783
70,10430630.698953541
222,11971104.174351562
967,31805603.75973783
1206,0.0
2,3, 1, 3, 0,18, 0.00,60.00,Tuesday
34,22778233.713378684
70,7670828.15555092
222,5985552.087175781
967,22778233.713378677
1206,0.0
2,3, 1, 3, 0,19, 0.00,60.00,Tuesday
34,18948365.271411349
70,5298397.224606365
222,2394220.834870312
967,18948365.271411349
1206,0.0
2,3, 1, 3, 0,20, 0.00,60.00,Tuesday
34,13031418.059538957
70,5298397.224606365
222,2394220.834870312
967,13031418.059538952
1206,0.0
2,3, 1, 3, 0,21, 0.00,60.00,Tuesday
34,11769894.910823154
70,4036874.0758905645
222,2394220.834870312
967,11769894.910823152
1206,0.0
2,3, 1, 3, 0,22, 0.00,60.00,Tuesday
34,11769894.910823154
70,4036874.0758905645
222,2394220.834870312
967,11769894.910823152
1206,0.0
2,3, 1, 3, 0,23, 0.00,60.00,Tuesday
34,10634524.076916654
70,2901503.2420463429
222,2394220.834870312
967,10634524.076916654
1206,0.0
2,3, 1, 3, 0,24, 0.00,60.00,Tuesday
34,10305881.415921549
70,2923570.5965399087
222,2043510.819381642
967,10305881.415921549
1206,0.0
2,4, 1, 4, 0, 1, 0.00,60.00,Wednesday
34,12258423.644994012
70,2923570.5965399087
222,5108777.048454104
967,12258423.644994012
1206,0.0
2,4, 1, 4, 0, 2, 0.00,60.00,Wednesday
34,12258423.644994012
70,2923570.5965399087
222,5108777.048454104
967,12258423.644994012
1206,0.0
2,4, 1, 4, 0, 3, 0.00,60.00,Wednesday
34,12558423.644994012
70,2923570.5965399087
222,5108777.048454104
967,12558423.644994012
1206,0.0
2,4, 1, 4, 0, 4, 0.00,60.00,Wednesday
34,13158423.644994012
70,2923570.5965399087
222,5108777.048454104
967,13158423.64499401
1206,0.0
2,4, 1, 4, 0, 5, 0.00,60.00,Wednesday
34,13158423.644994012
70,2923570.5965399087
222,5108777.048454104
967,13158423.64499401
1206,0.0
2,4, 1, 4, 0, 6, 0.00,60.00,Wednesday
34,13970526.588477325
70,3735673.540023218
222,5108777.048454104
967,13970526.588477325
1206,0.0
2,4, 1, 4, 0, 7, 0.00,60.00,Wednesday
34,33000022.878395268
70,2901503.2420463429
222,5985552.087175781
967,33000022.878395268
1206,1262171.4660556983
2,4, 1, 4, 0, 8, 0.00,60.00,Wednesday
34,33599689.255551669
70,5192676.87079856
222,5985552.087175781
967,33599689.25555166
1206,1420671.8721985403
2,4, 1, 4, 0, 9, 0.00,60.00,Wednesday
34,32868290.395332926
70,10289240.224429956
222,11971104.174351562
967,32868290.395332926
1206,0.0
2,4, 1, 4, 0,10, 0.00,60.00,Wednesday
34,30591982.005408929
70,10269317.17152368
222,11971104.174351562
967,30591982.005408929
1206,0.0
2,4, 1, 4, 0,11, 0.00,60.00,Wednesday
34,30123385.409956647
70,10179734.023670417
222,11971104.174351562
967,30123385.40995665
1206,0.0
2,4, 1, 4, 0,12, 0.00,60.00,Wednesday
34,30799613.44951108
70,10339259.627370548
222,11971104.174351562
967,30799613.44951108
1206,0.0
2,4, 1, 4, 0,13, 0.00,60.00,Wednesday
34,28479987.581591414
70,9254602.445766276
222,11252837.923890466
967,28479987.581591414
1206,0.0
2,4, 1, 4, 0,14, 0.00,60.00,Wednesday
34,31359656.07096471
70,10339259.627370548
222,11971104.174351562
967,31359656.07096471
1206,0.0
2,4, 1, 4, 0,15, 0.00,60.00,Wednesday
34,31325182.997750909
70,10164827.029103196
222,11971104.174351562
967,31325182.997750909
1206,0.0
2,4, 1, 4, 0,16, 0.00,60.00,Wednesday
34,31628981.382329629
70,10249394.118617407
222,11971104.174351562
967,31628981.382329626
1206,0.0
2,4, 1, 4, 0,17, 0.00,60.00,Wednesday
34,31368940.140196787
70,10323063.215132216
222,11971104.174351562
967,31368940.140196787
1206,0.0
2,4, 1, 4, 0,18, 0.00,60.00,Wednesday
34,23075694.310153847
70,7559472.5465636909
222,5985552.087175781
967,23075694.310153847
1206,0.0
2,4, 1, 4, 0,19, 0.00,60.00,Wednesday
34,19888428.277787318
70,5298397.224606365
222,2394220.834870312
967,19888428.277787314
1206,0.0
2,4, 1, 4, 0,20, 0.00,60.00,Wednesday
34,13031418.059538957
70,5298397.224606365
222,2394220.834870312
967,13031418.059538952
1206,0.0
2,4, 1, 4, 0,21, 0.00,60.00,Wednesday
34,12519894.910823152
70,4036874.0758905645
222,2394220.834870312
967,12519894.910823152
1206,0.0
2,4, 1, 4, 0,22, 0.00,60.00,Wednesday
34,12669894.910823152
70,4036874.0758905645
222,2394220.834870312
967,12669894.910823152
1206,0.0
2,4, 1, 4, 0,23, 0.00,60.00,Wednesday
34,11534524.076916654
70,2901503.2420463429
222,2394220.834870312
967,11534524.076916654
1206,0.0
2,4, 1, 4, 0,24, 0.00,60.00,Wednesday
34,11205881.415921549
70,2923570.5965399087
222,2043510.819381642
967,11205881.415921549
1206,0.0
2,5, 1, 5, 0, 1, 0.00,60.00,Thursday
34,12408423.644994012
70,2923570.5965399087
222,5108777.048454104
967,12408423.64499401
1206,0.0
2,5, 1, 5, 0, 2, 0.00,60.00,Thursday
34,12708423.644994012
70,2923570.5965399087
222,5108777.048454104
967,12708423.644994012
1206,0.0
2,5, 1, 5, 0, 3, 0.00,60.00,Thursday
34,13158423.644994012
70,2923570.5965399087
222,5108777.048454104
967,13158423.64499401
1206,0.0
2,5, 1, 5, 0, 4, 0.00,60.00,Thursday
34,13158423.644994012
70,2923570.5965399087
222,5108777.048454104
967,13158423.64499401
1206,0.0
2,5, 1, 5, 0, 5, 0.00,60.00,Thursday
34,13158423.644994012
70,2923570.5965399087
222,5108777.048454104
967,13158423.64499401
1206,0.0
2,5, 1, 5, 0, 6, 0.00,60.00,Thursday
34,13970526.588477325
70,3735673.540023218
222,5108777.048454104
967,13970526.588477325
1206,0.0
2,5, 1, 5, 0, 7, 0.00,60.00,Thursday
34,40357579.186843167
70,2901503.2420463429
222,5985552.087175781
967,40357579.186843167
1206,3430254.0611146979
2,5, 1, 5, 0, 8, 0.00,60.00,Thursday
34,39970922.324159029
70,5192676.87079856
222,5985552.087175781
967,39970922.32415902
1206,6357172.951461414
2,5, 1, 5, 0, 9, 0.00,60.00,Thursday
34,33638088.42782888
70,10289240.224429956
222,11971104.174351562
967,33638088.42782888
1206,0.0
2,5, 1, 5, 0,10, 0.00,60.00,Thursday
34,30459776.725177126
70,10195886.067907019
222,11971104.174351562
967,30459776.725177126
1206,0.0
2,5, 1, 5, 0,11, 0.00,60.00,Thursday
34,29922798.272825377
70,9955792.954769943
222,11971104.174351562
967,29922798.272825377
1206,0.0
2,5, 1, 5, 0,12, 0.00,60.00,Thursday
34,30869558.453551167
70,10128980.503367912
222,11971104.174351562
967,30869558.453551167
1206,0.0
2,5, 1, 5, 0,13, 0.00,60.00,Thursday
34,28516441.91736197
70,9224749.114384843
222,11252837.923890466
967,28516441.91736197
1206,0.0
2,5, 1, 5, 0,14, 0.00,60.00,Thursday
34,31755124.263825153
70,10105286.441791965
222,11971104.174351562
967,31755124.263825153
1206,0.0
2,5, 1, 5, 0,15, 0.00,60.00,Thursday
34,32538091.5484775
70,10162318.99993367
222,11971104.174351562
967,32538091.5484775
1206,0.0
2,5, 1, 5, 0,16, 0.00,60.00,Thursday
34,33253472.328108986
70,10269317.171523679
222,11971104.174351562
967,33253472.328108986
1206,0.0
2,5, 1, 5, 0,17, 0.00,60.00,Thursday
34,33011981.63639436
70,10318835.341294434
222,11971104.174351562
967,33011981.636394357
1206,0.0
2,5, 1, 5, 0,18, 0.00,60.00,Thursday
34,22748970.760744323
70,7559472.5465636909
222,5985552.087175781
967,22748970.760744323
1206,0.0
2,5, 1, 5, 0,19, 0.00,60.00,Thursday
34,18948365.27141135
70,5298397.224606365
222,2394220.834870312
967,18948365.271411349
1206,0.0
2,5, 1, 5, 0,20, 0.00,60.00,Thursday
34,13031418.059538957
70,5298397.224606365
222,2394220.834870312
967,13031418.059538952
1206,0.0
2,5, 1, 5, 0,21, 0.00,60.00,Thursday
34,11769894.910823154
70,4036874.0758905645
222,2394220.834870312
967,11769894.910823152
1206,0.0
2,5, 1, 5, 0,22, 0.00,60.00,Thursday
34,11769894.910823154
70,4036874.0758905645
222,2394220.834870312
967,11769894.910823152
1206,0.0
2,5, 1, 5, 0,23, 0.00,60.00,Thursday
34,10634524.076916654
70,2901503.2420463429
222,2394220.834870312
967,10634524.076916654
1206,0.0
2,5, 1, 5, 0,24, 0.00,60.00,Thursday
34,10305881.415921549
70,2923570.5965399087
222,2043510.819381642
967,10305881.415921549
1206,0.0
2,6, 1, 6, 0, 1, 0.00,60.00,Friday
34,12258423.644994012
70,2923570.5965399087
222,5108777.048454104
967,12258423.644994012
1206,0.0
2,6, 1, 6, 0, 2, 0.00,60.00,Friday
34,12258423.644994012
70,2923570.5965399087
222,5108777.048454104
967,12258423.644994012
1206,0.0
2,6, 1, 6, 0, 3, 0.00,60.00,Friday
34,12258423.644994012
70,2923570.5965399087
222,5108777.048454104
967,12258423.644994012
1206,0.0
2,6, 1, 6, 0, 4, 0.00,60.00,Friday
34,12258423.644994012
70,2923570.5965399087
222,5108777.048454104
967,12258423.644994012
1206,0.0
2,6, 1, 6, 0, 5, 0.00,60.00,Friday
34,12258423.644994012
70,2923570.5965399087
222,5108777.048454104
967,12258423.644994012
1206,0.0
2,6, 1, 6, 0, 6, 0.00,60.00,Friday
34,13070526.588477325
70,3735673.540023218
222,5108777.048454104
967,13070526.58847732
1206,0.0
2,6, 1, 6, 0, 7, 0.00,60.00,Friday
34,21800927.593277359
70,2901503.2420463429
222,5985552.087175781
967,21800927.593277359
1206,0.0
2,6, 1, 6, 0, 8, 0.00,60.00,Friday
34,22525997.677251657
70,5192676.87079856
222,5985552.087175781
967,22525997.677251653
1206,0.0
2,6, 1, 6, 0, 9, 0.00,60.00,Friday
34,30232891.610716188
70,10289240.224429956
222,11971104.174351562
967,30232891.610716188
1206,0.0
2,6, 1, 6, 0,10, 0.00,60.00,Friday
34,30213606.329182395
70,9968191.920167633
222,11971104.174351562
967,30213606.329182395
1206,0.0
2,6, 1, 6, 0,11, 0.00,60.00,Friday
34,31383302.14596066
70,9912081.323055283
222,11971104.174351562
967,31383302.14596065
1206,0.0
2,6, 1, 6, 0,12, 0.00,60.00,Friday
34,32047379.737733209
70,9845717.441779092
222,11971104.174351562
967,32047379.737733209
1206,0.0
2,6, 1, 6, 0,13, 0.00,60.00,Friday
34,29762738.01835777
70,8833733.154890508
222,11252837.923890466
967,29762738.01835777
1206,0.0
2,6, 1, 6, 0,14, 0.00,60.00,Friday
34,33976397.382353197
70,9961312.541494608
222,11971104.174351562
967,33976397.382353197
1206,0.0
2,6, 1, 6, 0,15, 0.00,60.00,Friday
34,34758167.706467319
70,10134995.110137994
222,11971104.174351562
967,34758167.706467319
1206,0.0
2,6, 1, 6, 0,16, 0.00,60.00,Friday
34,34872416.55630118
70,10269317.171523679
222,11971104.174351562
967,34872416.55630117
1206,0.0
2,6, 1, 6, 0,17, 0.00,60.00,Friday
34,34345813.84559185
70,10318835.341294434
222,11971104.174351562
967,34345813.84559185
1206,0.0
2,6, 1, 6, 0,18, 0.00,60.00,Friday
34,22936017.997710177
70,7556072.773689443
222,5985552.087175781
967,22936017.997710173
1206,0.0
2,6, 1, 6, 0,19, 0.00,60.00,Friday
34,18948365.27141135
70,5298397.224606365
222,2394220.834870312
967,18948365.271411349
1206,0.0
2,6, 1, 6, 0,20, 0.00,60.00,Friday
34,13031418.059538957
70,5298397.224606365
222,2394220.834870312
967,13031418.059538952
1206,0.0
2,6, 1, 6, 0,21, 0.00,60.00,Friday
34,11769894.910823154
70,4036874.0758905645
222,2394220.834870312
967,11769894.910823152
1206,0.0
2,6, 1, 6, 0,22, 0.00,60.00,Friday
34,11769894.910823154
70,4036874.0758905645
222,2394220.834870312
967,11769894.910823152
1206,0.0
2,6, 1, 6, 0,23, 0.00,60.00,Friday
34,10634524.076916654
70,2901503.2420463429
222,2394220.834870312
967,10634524.076916654
1206,0.0
2,6, 1, 6, 0,24, 0.00,60.00,Friday
34,10305881.415921549
70,2923570.5965399087
222,2043510.819381642
967,10305881.415921549
1206,0.0
2,7, 1, 7, 0, 1, 0.00,60.00,Saturday
34,9643157.415921549
70,2923570.5965399087
222,2043510.819381642
967,9643157.415921549
1206,0.0
2,7, 1, 7, 0, 2, 0.00,60.00,Saturday
34,9493157.415921549
70,2923570.5965399087
222,2043510.819381642
967,9493157.415921549
1206,0.0
2,7, 1, 7, 0, 3, 0.00,60.00,Saturday
34,9943157.415921549
70,2923570.5965399087
222,2043510.819381642
967,9943157.415921549
1206,0.0
2,7, 1, 7, 0, 4, 0.00,60.00,Saturday
34,10093157.415921549
70,2923570.5965399087
222,2043510.819381642
967,10093157.415921549
1206,0.0
2,7, 1, 7, 0, 5, 0.00,60.00,Saturday
34,10093157.415921549
70,2923570.5965399087
222,2043510.819381642
967,10093157.415921549
1206,0.0
2,7, 1, 7, 0, 6, 0.00,60.00,Saturday
34,10093157.415921549
70,2923570.5965399087
222,2043510.819381642
967,10093157.415921549
1206,0.0
2,7, 1, 7, 0, 7, 0.00,60.00,Saturday
34,10605881.415921549
70,2923570.5965399087
222,2043510.819381642
967,10605881.415921549
1206,0.0
2,7, 1, 7, 0, 8, 0.00,60.00,Saturday
34,8504908.081669033
70,2861397.2622873915
222,2043510.819381642
967,8504908.08166903
1206,0.0
2,7, 1, 7, 0, 9, 0.00,60.00,Saturday
34,6748581.748542961
70,2649470.929161319
222,2043510.819381642
967,6748581.748542961
1206,0.0
2,7, 1, 7, 0,10, 0.00,60.00,Saturday
34,6679690.352414091
70,2580579.533032451
222,2043510.819381642
967,6679690.35241409
1206,0.0
2,7, 1, 7, 0,11, 0.00,60.00,Saturday
34,6662719.349755264
70,2563608.530373622
222,2043510.819381642
967,6662719.349755263
1206,0.0
2,7, 1, 7, 0,12, 0.00,60.00,Saturday
34,6752167.778946392
70,2653056.959564751
222,2043510.819381642
967,6752167.778946391
1206,0.0
2,7, 1, 7, 0,13, 0.00,60.00,Saturday
34,6752808.97748631
70,2653698.15810467
222,2043510.819381642
967,6752808.97748631
1206,0.0
2,7, 1, 7, 0,14, 0.00,60.00,Saturday
34,6696083.63039995
70,2596972.8110183107
222,2043510.819381642
967,6696083.63039995
1206,0.0
2,7, 1, 7, 0,15, 0.00,60.00,Saturday
34,6697957.602902959
70,2598846.783521319
222,2043510.819381642
967,6697957.602902959
1206,0.0
2,7, 1, 7, 0,16, 0.00,60.00,Saturday
34,6738321.4089369359
70,2639210.5895552935
222,2043510.819381642
967,6738321.408936935
1206,0.0
2,7, 1, 7, 0,17, 0.00,60.00,Saturday
34,6756202.466892153
70,2657091.647510513
222,2043510.819381642
967,6756202.466892153
1206,0.0
2,7, 1, 7, 0,18, 0.00,60.00,Saturday
34,8065481.621721469
70,2871970.8023398278
222,2043510.819381642
967,8065481.621721469
1206,0.0
2,7, 1, 7, 0,19, 0.00,60.00,Saturday
34,10305881.415921549
70,2923570.5965399087
222,2043510.819381642
967,10305881.415921549
1206,0.0
2,7, 1, 7, 0,20, 0.00,60.00,Saturday
34,10305881.415921549
70,2923570.5965399087
222,2043510.819381642
967,10305881.415921549
1206,0.0
2,7, 1, 7, 0,21, 0.00,60.00,Saturday
34,10305881.415921549
70,2923570.5965399087
222,2043510.819381642
967,10305881.415921549
1206,0.0
2,7, 1, 7, 0,22, 0.00,60.00,Saturday
34,10305881.415921549
70,2923570.5965399087
222,2043510.819381642
967,10305881.415921549
1206,0.0
2,7, 1, 7, 0,23, 0.00,60.00,Saturday
34,10305881.415921549
70,2923570.5965399087
222,2043510.819381642
967,10305881.415921549
1206,0.0
2,7, 1, 7, 0,24, 0.00,60.00,Saturday
34,10305881.415921549
70,2923570.5965399087
222,2043510.819381642
967,10305881.415921549
1206,0.0
2,8, 1, 8, 0, 1, 0.00,60.00,Sunday
34,9193157.415921549
70,2923570.5965399087
222,2043510.819381642
967,9193157.415921549
1206,0.0
2,8, 1, 8, 0, 2, 0.00,60.00,Sunday
34,9193157.415921549
70,2923570.5965399087
222,2043510.819381642
967,9193157.415921549
1206,0.0
2,8, 1, 8, 0, 3, 0.00,60.00,Sunday
34,9193157.415921549
70,2923570.5965399087
222,2043510.819381642
967,9193157.415921549
1206,0.0
2,8, 1, 8, 0, 4, 0.00,60.00,Sunday
34,9193157.415921549
70,2923570.5965399087
222,2043510.819381642
967,9193157.415921549
1206,0.0
2,8, 1, 8, 0, 5, 0.00,60.00,Sunday
34,9193157.415921549
70,2923570.5965399087
222,2043510.819381642
967,9193157.415921549
1206,0.0
2,8, 1, 8, 0, 6, 0.00,60.00,Sunday
34,9193157.415921549
70,2923570.5965399087
222,2043510.819381642
967,9193157.415921549
1206,0.0
2,8, 1, 8, 0, 7, 0.00,60.00,Sunday
34,10305881.415921549
70,2923570.5965399087
222,2043510.819381642
967,10305881.415921549
1206,0.0
2,8, 1, 8, 0, 8, 0.00,60.00,Sunday
34,8059514.695338664
70,2866003.875957024
222,2043510.819381642
967,8059514.695338664
1206,0.0
2,8, 1, 8, 0, 9, 0.00,60.00,Sunday
34,6737504.373550336
70,2638393.554168695
222,2043510.819381642
967,6737504.373550336
1206,0.0
2,8, 1, 8, 0,10, 0.00,60.00,Sunday
34,6939089.669530234
70,2839978.850148593
222,2043510.819381642
967,6939089.669530234
1206,0.0
2,8, 1, 8, 0,11, 0.00,60.00,Sunday
34,7000255.027273014
70,2901144.207891374
222,2043510.819381642
967,7000255.027273014
1206,0.0
2,8, 1, 8, 0,12, 0.00,60.00,Sunday
34,6912707.099585454
70,2813596.2802038129
222,2043510.819381642
967,6912707.099585454
1206,0.0
2,8, 1, 8, 0,13, 0.00,60.00,Sunday
34,6840224.465120237
70,2741113.6457385967
222,2043510.819381642
967,6840224.465120237
1206,0.0
2,8, 1, 8, 0,14, 0.00,60.00,Sunday
34,6944053.236320035
70,2844942.416938395
222,2043510.819381642
967,6944053.236320035
1206,0.0
2,8, 1, 8, 0,15, 0.00,60.00,Sunday
34,6940011.7405669069
70,2840900.9211852669
222,2043510.819381642
967,6940011.7405669069
1206,0.0
2,8, 1, 8, 0,16, 0.00,60.00,Sunday
34,6972052.653364815
70,2872941.833983174
222,2043510.819381642
967,6972052.653364815
1206,0.0
2,8, 1, 8, 0,17, 0.00,60.00,Sunday
34,6956336.9277690839
70,2857226.1083874425
222,2043510.819381642
967,6956336.9277690839
1206,0.0
2,8, 1, 8, 0,18, 0.00,60.00,Sunday
34,8117081.415921549
70,2923570.5965399087
222,2043510.819381642
967,8117081.415921549
1206,0.0
2,8, 1, 8, 0,19, 0.00,60.00,Sunday
34,10305881.415921549
70,2923570.5965399087
222,2043510.819381642
967,10305881.415921549
1206,0.0
2,8, 1, 8, 0,20, 0.00,60.00,Sunday
34,10305881.415921549
70,2923570.5965399087
222,2043510.819381642
967,10305881.415921549
1206,0.0
2,8, 1, 8, 0,21, 0.00,60.00,Sunday
34,10305881.415921549
70,2923570.5965399087
222,2043510.819381642
967,10305881.415921549
1206,0.0
2,8, 1, 8, 0,22, 0.00,60.00,Sunday
34,10305881.415921549
70,2923570.5965399087
222,2043510.819381642
967,10305881.415921549
1206,0.0
2,8, 1, 8, 0,23, 0.00,60.00,Sunday
34,10305881.415921549
70,2923570.5965399087
222,2043510.819381642
967,10305881.415921549
1206,0.0
2,8, 1, 8, 0,24, 0.00,60.00,Sunday
34,10305881.415921549
70,2923570.5965399087
222,2043510.819381642
967,10305881.415921549
1206,0.0
2,9, 1, 9, 0, 1, 0.00,60.00,Monday
34,12258423.644994012
70,2923570.5965399087
222,5108777.048454104
967,12258423.644994012
1206,0.0
2,9, 1, 9, 0, 2, 0.00,60.00,Monday
34,12258423.644994012
70,2923570.5965399087
222,5108777.048454104
967,12258423.644994012
1206,0.0
2,9, 1, 9, 0, 3, 0.00,60.00,Monday
34,12258423.644994012
70,2923570.5965399087
222,5108777.048454104
967,12258423.644994012
1206,0.0
2,9, 1, 9, 0, 4, 0.00,60.00,Monday
34,12258423.644994012
70,2923570.5965399087
222,5108777.048454104
967,12258423.644994012
1206,0.0
2,9, 1, 9, 0, 5, 0.00,60.00,Monday
34,12258423.644994012
70,2923570.5965399087
222,5108777.048454104
967,12258423.644994012
1206,0.0
2,9, 1, 9, 0, 6, 0.00,60.00,Monday
34,13070526.588477325
70,3735673.540023218
222,5108777.048454104
967,13070526.58847732
1206,0.0
2,9, 1, 9, 0, 7, 0.00,60.00,Monday
34,28693978.252463435
70,2901503.2420463429
222,5985552.087175781
967,28693978.252463424
1206,0.0
2,9, 1, 9, 0, 8, 0.00,60.00,Monday
34,29570702.214768869
70,5185720.273333858
222,5985552.087175781
967,29570702.214768866
1206,0.0
2,9, 1, 9, 0, 9, 0.00,60.00,Monday
34,31017174.81418961
70,10289240.224429956
222,11971104.174351562
967,31017174.81418961
1206,0.0
2,9, 1, 9, 0,10, 0.00,60.00,Monday
34,30168555.603008745
70,10209548.012804857
222,11971104.174351562
967,30168555.60300874
1206,0.0
2,9, 1, 9, 0,11, 0.00,60.00,Monday
34,30007635.55921822
70,9989377.952574056
222,11971104.174351562
967,30007635.55921822
1206,0.0
2,9, 1, 9, 0,12, 0.00,60.00,Monday
34,30745858.88853887
70,10080347.330546638
222,11971104.174351562
967,30745858.88853887
1206,0.0
2,9, 1, 9, 0,13, 0.00,60.00,Monday
34,28294179.515517408
70,9068794.379692272
222,11252837.923890466
967,28294179.515517404
1206,0.0
2,9, 1, 9, 0,14, 0.00,60.00,Monday
34,31236639.800697805
70,10105286.441791965
222,11971104.174351562
967,31236639.800697805
1206,0.0
2,9, 1, 9, 0,15, 0.00,60.00,Monday
34,31448044.477398006
70,10025470.979547693
222,11971104.174351562
967,31448044.477398
1206,0.0
2,9, 1, 9, 0,16, 0.00,60.00,Monday
34,31933299.54731898
70,10249394.118617407
222,11971104.174351562
967,31933299.547318974
1206,0.0
2,9, 1, 9, 0,17, 0.00,60.00,Monday
34,31407260.79751254
70,10310379.593618868
222,11971104.174351562
967,31407260.79751254
1206,0.0
2,9, 1, 9, 0,18, 0.00,60.00,Monday
34,22871119.34595091
70,7554907.10119207
222,5985552.087175781
967,22871119.34595091
1206,0.0
2,9, 1, 9, 0,19, 0.00,60.00,Monday
34,19506266.105169164
70,5298397.224606365
222,2394220.834870312
967,19506266.10516916
1206,0.0
2,9, 1, 9, 0,20, 0.00,60.00,Monday
34,13031418.059538957
70,5298397.224606365
222,2394220.834870312
967,13031418.059538952
1206,0.0
2,9, 1, 9, 0,21, 0.00,60.00,Monday
34,11769894.910823154
70,4036874.0758905645
222,2394220.834870312
967,11769894.910823152
1206,0.0
2,9, 1, 9, 0,22, 0.00,60.00,Monday
34,11769894.910823154
70,4036874.0758905645
222,2394220.834870312
967,11769894.910823152
1206,0.0
2,9, 1, 9, 0,23, 0.00,60.00,Monday
34,10634524.076916654
70,2901503.2420463429
222,2394220.834870312
967,10634524.076916654
1206,0.0
2,9, 1, 9, 0,24, 0.00,60.00,Monday
34,10755881.415921549
70,2923570.5965399087
222,2043510.819381642
967,10755881.415921549
1206,0.0
2,10, 1,10, 0, 1, 0.00,60.00,Tuesday
34,13158423.644994012
70,2923570.5965399087
222,5108777.048454104
967,13158423.64499401
1206,0.0
2,10, 1,10, 0, 2, 0.00,60.00,Tuesday
34,13158423.644994012
70,2923570.5965399087
222,5108777.048454104
967,13158423.64499401
1206,0.0
2,10, 1,10, 0, 3, 0.00,60.00,Tuesday