Program Version,EnergyPlus, Version 9.0.1-bb7ca4f0da, YMD=2019.03.13 17:19
1,5,Environment Title[],Latitude[deg],Longitude[deg],Time Zone[],Elevation[m]
2,8,Day of Simulation[],Month[],Day of Month[],DST Indicator[1=yes 0=no],Hour[],StartMinute[],EndMinute[],DayType
3,5,Cumulative Day of Simulation[],Month[],Day of Month[],DST Indicator[1=yes 0=no],DayType  ! When Daily Meters Requested
4,2,Cumulative Days of Simulation[],Month[]  ! When Monthly Meters Requested
5,1,Cumulative Days of Simulation[] ! When Run Period Meters Requested
6,1,Calendar Year of Simulation[] ! When Annual Meters Requested
70,1,InteriorLights:Electricity [J] !Hourly
222,1,InteriorEquipment:Electricity [J] !Hourly
34,1,Electricity:Facility [J] !Hourly
967,1,ElectricityNet:Facility [J] !Hourly
1206,1,Gas:Facility [J] !Hourly
End of Data Dictionary
1,RUNPERIOD 1,  40.65, -73.80,  -5.00,   5.00
2,1, 1, 1, 0, 1, 0.00,60.00,Holiday
34,13276150.92320031
70,2923570.5965399087
222,2043510.819381642
967,13276150.923200308
1206,0.0
2,1, 1, 1, 0, 2, 0.00,60.00,Holiday
34,10608595.426205488
70,2923570.5965399087
222,2043510.819381642
967,10608595.426205488
1206,0.0
2,1, 1, 1, 0, 3, 0.00,60.00,Holiday
34,10539502.400643625
70,2923570.5965399087
222,2043510.819381642
967,10539502.400643625
1206,0.0
2,1, 1, 1, 0, 4, 0.00,60.00,Holiday
34,10501916.886653075
70,2923570.5965399087
222,2043510.819381642
967,10501916.886653074
1206,0.0
2,1, 1, 1, 0, 5, 0.00,60.00,Holiday
34,11222921.709939685
70,2923570.5965399087
222,2043510.819381642
967,11222921.709939683
1206,0.0
2,1, 1, 1, 0, 6, 0.00,60.00,Holiday
34,10693073.483941706
70,2923570.5965399087
222,2043510.819381642
967,10693073.483941706
1206,0.0
2,1, 1, 1, 0, 7, 0.00,60.00,Holiday
34,11650137.141102767
70,2923570.5965399087
222,2043510.819381642
967,11650137.141102767
1206,0.0
2,1, 1, 1, 0, 8, 0.00,60.00,Holiday
34,9649603.268129185
70,2845884.4935550799
222,2043510.819381642
967,9649603.268129183
1206,0.0
2,1, 1, 1, 0, 9, 0.00,60.00,Holiday
34,7958252.922198314
70,2589227.642455212
222,2043510.819381642
967,7958252.922198314
1206,0.0
2,1, 1, 1, 0,10, 0.00,60.00,Holiday
34,7550374.96634608
70,2551264.1469644389
222,2043510.819381642
967,7550374.96634608
1206,0.0
2,1, 1, 1, 0,11, 0.00,60.00,Holiday
34,7520239.762984656
70,2521128.943603015
222,2043510.819381642
967,7520239.762984655
1206,0.0
2,1, 1, 1, 0,12, 0.00,60.00,Holiday
34,7477938.510580722
70,2478827.691199081
222,2043510.819381642
967,7477938.51058072
1206,0.0
2,1, 1, 1, 0,13, 0.00,60.00,Holiday
34,7459996.476278547
70,2460885.656896907
222,2043510.819381642
967,7459996.476278546
1206,0.0
2,1, 1, 1, 0,14, 0.00,60.00,Holiday
34,7624652.78227797
70,2625541.9628963286
222,2043510.819381642
967,7624652.78227797
1206,0.0
2,1, 1, 1, 0,15, 0.00,60.00,Holiday
34,7558401.598422116
70,2559290.779040474
222,2043510.819381642
967,7558401.598422114
1206,0.0
2,1, 1, 1, 0,16, 0.00,60.00,Holiday
34,7698337.116282875
70,2699226.2969012346
222,2043510.819381642
967,7698337.116282874
1206,0.0
2,1, 1, 1, 0,17, 0.00,60.00,Holiday
34,9555633.306498789
70,2914922.4871171477
222,2043510.819381642
967,9555633.306498789
1206,0.0
2,1, 1, 1, 0,18, 0.00,60.00,Holiday
34,11205881.415921549
70,2923570.5965399087
222,2043510.819381642
967,11205881.415921549
1206,0.0
2,1, 1, 1, 0,19, 0.00,60.00,Holiday
34,11480845.883186249
70,2923570.5965399087
222,2043510.819381642
967,11480845.883186249
1206,0.0
2,1, 1, 1, 0,20, 0.00,60.00,Holiday
34,12739318.926422919
70,2923570.5965399087
222,2043510.819381642
967,12739318.926422919
1206,0.0
2,1, 1, 1, 0,21, 0.00,60.00,Holiday
34,13719021.638834978
70,2923570.5965399087
222,2043510.819381642
967,13719021.638834978
1206,0.0
2,1, 1, 1, 0,22, 0.00,60.00,Holiday
34,14237136.2213906
70,2923570.5965399087
222,2043510.819381642
967,14237136.2213906
1206,0.0
2,1, 1, 1, 0,23, 0.00,60.00,Holiday
34,13936976.524241949
70,2923570.5965399087
222,2043510.819381642
967,13936976.524241947
1206,0.0
2,1, 1, 1, 0,24, 0.00,60.00,Holiday
34,16604387.31306773
70,2923570.5965399087
222,2043510.819381642
967,16604387.31306773
1206,86280.31917874098
2,2, 1, 2, 0, 1, 0.00,60.00,Monday
34,16190522.656610933
70,2923570.5965399087
222,5108777.048454104
967,16190522.656610929
1206,0.0
2,2, 1, 2, 0, 2, 0.00,60.00,Monday
34,15062779.51722219
70,2923570.5965399087
222,5108777.048454104
967,15062779.517222187
1206,0.0
2,2, 1, 2, 0, 3, 0.00,60.00,Monday
34,14074656.207643994
70,2923570.5965399087
222,5108777.048454104
967,14074656.207643992
1206,0.0
2,2, 1, 2, 0, 4, 0.00,60.00,Monday
34,13158423.644994012
70,2923570.5965399087
222,5108777.048454104
967,13158423.64499401
1206,0.0
2,2, 1, 2, 0, 5, 0.00,60.00,Monday
34,13365508.400550476
70,2923570.5965399087
222,5108777.048454104
967,13365508.400550474
1206,0.0
2,2, 1, 2, 0, 6, 0.00,60.00,Monday
34,14490902.042647779
70,3735673.540023218
222,5108777.048454104
967,14490902.042647779
1206,0.0
2,2, 1, 2, 0, 7, 0.00,60.00,Monday
34,40295855.39803126
70,2901503.2420463429
222,5985552.087175781
967,40295855.39803125
1206,49759577.622808638
2,2, 1, 2, 0, 8, 0.00,60.00,Monday
34,41881015.13343607
70,5159579.436056565
222,5985552.087175781
967,41881015.13343607
1206,53995230.649430599
2,2, 1, 2, 0, 9, 0.00,60.00,Monday
34,50210222.39199958
70,9992532.98579491
222,11971104.174351562
967,50210222.39199959
1206,9294737.137256269
2,2, 1, 2, 0,10, 0.00,60.00,Monday
34,47090295.42660791
70,9868007.343404955
222,11971104.174351562
967,47090295.4266079
1206,2378498.6296186808
2,2, 1, 2, 0,11, 0.00,60.00,Monday
34,42791932.36941771
70,9788315.131779859
222,11971104.174351562
967,42791932.36941771
1206,151953.7365959682
2,2, 1, 2, 0,12, 0.00,60.00,Monday
34,39340871.0129853
70,9713638.978493816
222,11971104.174351562
967,39340871.0129853
1206,0.0
2,2, 1, 2, 0,13, 0.00,60.00,Monday
34,41907232.33669949
70,8536990.975914235
222,11252837.923890466
967,41907232.336699489
1206,0.0
2,2, 1, 2, 0,14, 0.00,60.00,Monday
34,37550748.2723529
70,9834250.136548387
222,11971104.174351562
967,37550748.2723529
1206,0.0
2,2, 1, 2, 0,15, 0.00,60.00,Monday
34,38660934.27706985
70,10354137.888551027
222,11971104.174351562
967,38660934.27706985
1206,0.0
2,2, 1, 2, 0,16, 0.00,60.00,Monday
34,38722263.080241989
70,10507594.818341718
222,11971104.174351562
967,38722263.08024198
1206,0.0
2,2, 1, 2, 0,17, 0.00,60.00,Monday
34,41678933.679532188
70,11353708.338442214
222,11971104.174351562
967,41678933.679532188
1206,0.0
2,2, 1, 2, 0,18, 0.00,60.00,Monday
34,40686686.27406273
70,7695291.207166387
222,5985552.087175781
967,40686686.27406273
1206,5499989.211585071
2,2, 1, 2, 0,19, 0.00,60.00,Monday
34,35798674.451471257
70,5298397.224606365
222,2394220.834870312
967,35798674.451471257
1206,0.0
2,2, 1, 2, 0,20, 0.00,60.00,Monday
34,13931418.059538957
70,5298397.224606365
222,2394220.834870312
967,13931418.059538952
1206,0.0
2,2, 1, 2, 0,21, 0.00,60.00,Monday
34,12669894.910823152
70,4036874.0758905645
222,2394220.834870312
967,12669894.910823152
1206,0.0
2,2, 1, 2, 0,22, 0.00,60.00,Monday
34,12669894.910823152
70,4036874.0758905645
222,2394220.834870312
967,12669894.910823152
1206,0.0
2,2, 1, 2, 0,23, 0.00,60.00,Monday
34,11534524.076916654
70,2901503.2420463429
222,2394220.834870312
967,11534524.076916654
1206,0.0
2,2, 1, 2, 0,24, 0.00,60.00,Monday
34,11205881.415921549
70,2923570.5965399087
222,2043510.819381642
967,11205881.415921549
1206,0.0
2,3, 1, 3, 0, 1, 0.00,60.00,Tuesday
34,13158423.644994012
70,2923570.5965399087
222,5108777.048454104
967,13158423.64499401
1206,0.0
2,3, 1, 3, 0, 2, 0.00,60.00,Tuesday
34,13158423.644994012
70,2923570.5965399087
222,5108777.048454104
967,13158423.64499401
1206,0.0
2,3, 1, 3, 0, 3, 0.00,60.00,Tuesday
34,13158423.644994012
70,2923570.5965399087
222,5108777.048454104
967,13158423.64499401
1206,0.0
2,3, 1, 3, 0, 4, 0.00,60.00,Tuesday
34,13158423.644994012
70,2923570.5965399087
222,5108777.048454104
967,13158423.64499401
1206,0.0
2,3, 1, 3, 0, 5, 0.00,60.00,Tuesday
34,13158423.644994012
70,2923570.5965399087
222,5108777.048454104
967,13158423.64499401
1206,0.0
2,3, 1, 3, 0, 6, 0.00,60.00,Tuesday
34,13970526.588477325
70,3735673.540023218
222,5108777.048454104
967,13970526.588477325
1206,0.0
2,3, 1, 3, 0, 7, 0.00,60.00,Tuesday
34,33024279.29748088
70,2901503.2420463429
222,5985552.087175781
967,33024279.297480879
1206,2648355.3532144206
2,3, 1, 3, 0, 8, 0.00,60.00,Tuesday
34,31825848.681220607
70,5298397.224606365
222,5985552.087175781
967,31825848.681220604
1206,0.0
2,3, 1, 3, 0, 9, 0.00,60.00,Tuesday
34,34879333.2044711
70,11353708.338442214
222,11971104.174351562
967,34879333.2044711
1206,0.0
2,3, 1, 3, 0,10, 0.00,60.00,Tuesday
34,33065670.93458689
70,11353708.338442214
222,11971104.174351562
967,33065670.934586895
1206,0.0
2,3, 1, 3, 0,11, 0.00,60.00,Tuesday
34,31181489.177597085
70,11106091.137796555
222,11971104.174351562
967,31181489.177597077
1206,0.0
2,3, 1, 3, 0,12, 0.00,60.00,Tuesday
34,30663549.07439007
70,10992813.928367347
222,11971104.174351562
967,30663549.07439006
1206,0.0
2,3, 1, 3, 0,13, 0.00,60.00,Tuesday
34,30112447.11078875
70,9718262.017465353
222,11252837.923890466
967,30112447.11078875
1206,0.0
2,3, 1, 3, 0,14, 0.00,60.00,Tuesday
34,30850257.38743593
70,11179522.241413216
222,11971104.174351562
967,30850257.387435929
1206,0.0
2,3, 1, 3, 0,15, 0.00,60.00,Tuesday
34,31024443.48446493
70,11353708.338442214
222,11971104.174351562
967,31024443.484464934
1206,0.0
2,3, 1, 3, 0,16, 0.00,60.00,Tuesday
34,30990858.486660817
70,11320123.340638102
222,11971104.174351562
967,30990858.48666082
1206,0.0
2,3, 1, 3, 0,17, 0.00,60.00,Tuesday
34,32679609.218343516
70,11353708.338442214
222,11971104.174351562
967,32679609.21834352
1206,0.0
2,3, 1, 3, 0,18, 0.00,60.00,Tuesday
34,28347930.616660496
70,7695291.207166387
222,5985552.087175781
967,28347930.616660499
1206,0.0
2,3, 1, 3, 0,19, 0.00,60.00,Tuesday
34,22985775.26732069
70,5298397.224606365
222,2394220.834870312
967,22985775.26732069
1206,0.0
2,3, 1, 3, 0,20, 0.00,60.00,Tuesday
34,13031418.059538957
70,5298397.224606365
222,2394220.834870312
967,13031418.059538952
1206,0.0
2,3, 1, 3, 0,21, 0.00,60.00,Tuesday
34,11769894.910823154
70,4036874.0758905645
222,2394220.834870312
967,11769894.910823152
1206,0.0
2,3, 1, 3, 0,22, 0.00,60.00,Tuesday
34,12219894.910823152
70,4036874.0758905645
222,2394220.834870312
967,12219894.910823152
1206,0.0
2,3, 1, 3, 0,23, 0.00,60.00,Tuesday
34,11534524.076916654
70,2901503.2420463429
222,2394220.834870312
967,11534524.076916654
1206,0.0
2,3, 1, 3, 0,24, 0.00,60.00,Tuesday
34,11205881.415921549
70,2923570.5965399087
222,2043510.819381642
967,11205881.415921549
1206,0.0
2,4, 1, 4, 0, 1, 0.00,60.00,Wednesday
34,13158423.644994012
70,2923570.5965399087
222,5108777.048454104
967,13158423.64499401
1206,0.0
2,4, 1, 4, 0, 2, 0.00,60.00,Wednesday
34,13158423.644994012
70,2923570.5965399087
222,5108777.048454104
967,13158423.64499401
1206,0.0
2,4, 1, 4, 0, 3, 0.00,60.00,Wednesday
34,13158423.644994012
70,2923570.5965399087
222,5108777.048454104
967,13158423.64499401
1206,0.0
2,4, 1, 4, 0, 4, 0.00,60.00,Wednesday
34,13158423.644994012
70,2923570.5965399087
222,5108777.048454104
967,13158423.64499401
1206,0.0
2,4, 1, 4, 0, 5, 0.00,60.00,Wednesday
34,13158423.644994012
70,2923570.5965399087
222,5108777.048454104
967,13158423.64499401
1206,0.0
2,4, 1, 4, 0, 6, 0.00,60.00,Wednesday
34,13970526.588477325
70,3735673.540023218
222,5108777.048454104
967,13970526.588477325
1206,0.0
2,4, 1, 4, 0, 7, 0.00,60.00,Wednesday
34,36149168.066840279
70,2901503.2420463429
222,5985552.087175781
967,36149168.066840279
1206,8527168.43594907
2,4, 1, 4, 0, 8, 0.00,60.00,Wednesday
34,39102948.10642579
70,5232650.53878078
222,5985552.087175781
967,39102948.1064258
1206,9793452.566254408
2,4, 1, 4, 0, 9, 0.00,60.00,Wednesday
34,40156284.09963088
70,10072699.99241888
222,11971104.174351562
967,40156284.09963087
1206,0.0
2,4, 1, 4, 0,10, 0.00,60.00,Wednesday
34,35833908.31397068
70,9887930.396311228
222,11971104.174351562
967,35833908.31397068
1206,0.0
2,4, 1, 4, 0,11, 0.00,60.00,Wednesday
34,33664086.97229583
70,9788315.131779859
222,11971104.174351562
967,33664086.97229583
1206,0.0
2,4, 1, 4, 0,12, 0.00,60.00,Wednesday
34,33114561.140835175
70,9716147.007663342
222,11971104.174351562
967,33114561.14083517
1206,0.0
2,4, 1, 4, 0,13, 0.00,60.00,Wednesday
34,34436573.396284218
70,8524847.024893934
222,11252837.923890466
967,34436573.396284218
1206,0.0
2,4, 1, 4, 0,14, 0.00,60.00,Wednesday
34,32104299.982186587
70,9828161.237592405
222,11971104.174351562
967,32104299.982186587
1206,0.0
2,4, 1, 4, 0,15, 0.00,60.00,Wednesday
34,31941176.35943541
70,9925553.129069902
222,11971104.174351562
967,31941176.35943541
1206,0.0
2,4, 1, 4, 0,16, 0.00,60.00,Wednesday
34,32316836.629744844
70,10190679.870684745
222,11971104.174351562
967,32316836.629744848
1206,0.0
2,4, 1, 4, 0,17, 0.00,60.00,Wednesday
34,35498649.293122898
70,11261599.231588662
222,11971104.174351562
967,35498649.293122898
1206,0.0
2,4, 1, 4, 0,18, 0.00,60.00,Wednesday
34,36922302.22673567
70,7695291.207166387
222,5985552.087175781
967,36922302.22673567
1206,0.0
2,4, 1, 4, 0,19, 0.00,60.00,Wednesday
34,31732059.157995978
70,5298397.224606365
222,2394220.834870312
967,31732059.157995978
1206,0.0
2,4, 1, 4, 0,20, 0.00,60.00,Wednesday
34,13931418.059538957
70,5298397.224606365
222,2394220.834870312
967,13931418.059538952
1206,0.0
2,4, 1, 4, 0,21, 0.00,60.00,Wednesday
34,12669894.910823152
70,4036874.0758905645
222,2394220.834870312
967,12669894.910823152
1206,0.0
2,4, 1, 4, 0,22, 0.00,60.00,Wednesday
34,12669894.910823152
70,4036874.0758905645
222,2394220.834870312
967,12669894.910823152
1206,0.0
2,4, 1, 4, 0,23, 0.00,60.00,Wednesday
34,11534524.076916654
70,2901503.2420463429
222,2394220.834870312
967,11534524.076916654
1206,0.0
2,4, 1, 4, 0,24, 0.00,60.00,Wednesday
34,11205881.415921549
70,2923570.5965399087
222,2043510.819381642
967,11205881.415921549
1206,0.0
2,5, 1, 5, 0, 1, 0.00,60.00,Thursday
34,13158423.644994012
70,2923570.5965399087
222,5108777.048454104
967,13158423.64499401
1206,0.0
2,5, 1, 5, 0, 2, 0.00,60.00,Thursday
34,13158423.644994012
70,2923570.5965399087
222,5108777.048454104
967,13158423.64499401
1206,0.0
2,5, 1, 5, 0, 3, 0.00,60.00,Thursday
34,13158423.644994012
70,2923570.5965399087
222,5108777.048454104
967,13158423.64499401
1206,0.0
2,5, 1, 5, 0, 4, 0.00,60.00,Thursday
34,13158423.644994012
70,2923570.5965399087
222,5108777.048454104
967,13158423.64499401
1206,0.0
2,5, 1, 5, 0, 5, 0.00,60.00,Thursday
34,13158423.644994012
70,2923570.5965399087
222,5108777.048454104
967,13158423.64499401
1206,0.0
2,5, 1, 5, 0, 6, 0.00,60.00,Thursday
34,13970526.588477325
70,3735673.540023218
222,5108777.048454104
967,13970526.588477325
1206,0.0
2,5, 1, 5, 0, 7, 0.00,60.00,Thursday
34,37989711.17071879
70,2901503.2420463429
222,5985552.087175781
967,37989711.17071879
1206,18976660.29405389
2,5, 1, 5, 0, 8, 0.00,60.00,Thursday
34,41618843.967797588
70,5138790.007886935
222,5985552.087175781
967,41618843.967797588
1206,21530773.854345714
2,5, 1, 5, 0, 9, 0.00,60.00,Thursday
34,43404802.65727107
70,10055284.968682133
222,11971104.174351562
967,43404802.65727107
1206,19903.125853764264
2,5, 1, 5, 0,10, 0.00,60.00,Thursday
34,37974050.203437197
70,9907853.4492175
222,11971104.174351562
967,37974050.20343719
1206,0.0
2,5, 1, 5, 0,11, 0.00,60.00,Thursday
34,35093893.94401459
70,9830669.266761933
222,11971104.174351562
967,35093893.94401458
1206,0.0
2,5, 1, 5, 0,12, 0.00,60.00,Thursday
34,34050535.97014037
70,9783440.253890744
222,11971104.174351562
967,34050535.97014037
1206,0.0
2,5, 1, 5, 0,13, 0.00,60.00,Thursday
34,32581737.88092438
70,8654284.498284102
222,11252837.923890466
967,32581737.880924379
1206,0.0
2,5, 1, 5, 0,14, 0.00,60.00,Thursday
34,32259455.760936839
70,9890438.425480754
222,11971104.174351562
967,32259455.76093684
1206,0.0
2,5, 1, 5, 0,15, 0.00,60.00,Thursday
34,31919847.4240945
70,9918817.226062593
222,11971104.174351562
967,31919847.42409449
1206,0.0
2,5, 1, 5, 0,16, 0.00,60.00,Thursday
34,32270290.09966895
70,10190679.870684745
222,11971104.174351562
967,32270290.09966895
1206,0.0
2,5, 1, 5, 0,17, 0.00,60.00,Thursday
34,35379236.98189309
70,11261599.231588662
222,11971104.174351562
967,35379236.98189309
1206,0.0
2,5, 1, 5, 0,18, 0.00,60.00,Thursday
34,36414611.01986571
70,7695291.207166387
222,5985552.087175781
967,36414611.01986571
1206,0.0
2,5, 1, 5, 0,19, 0.00,60.00,Thursday
34,31235465.36487712
70,5298397.224606365
222,2394220.834870312
967,31235465.36487712
1206,0.0
2,5, 1, 5, 0,20, 0.00,60.00,Thursday
34,13931418.059538957
70,5298397.224606365
222,2394220.834870312
967,13931418.059538952
1206,0.0
2,5, 1, 5, 0,21, 0.00,60.00,Thursday
34,12669894.910823152
70,4036874.0758905645
222,2394220.834870312
967,12669894.910823152
1206,0.0
2,5, 1, 5, 0,22, 0.00,60.00,Thursday
34,12669894.910823152
70,4036874.0758905645
222,2394220.834870312
967,12669894.910823152
1206,0.0
2,5, 1, 5, 0,23, 0.00,60.00,Thursday
34,11534524.076916654
70,2901503.2420463429
222,2394220.834870312
967,11534524.076916654
1206,0.0
2,5, 1, 5, 0,24, 0.00,60.00,Thursday
34,11205881.415921549
70,2923570.5965399087
222,2043510.819381642
967,11205881.415921549
1206,0.0
2,6, 1, 6, 0, 1, 0.00,60.00,Friday
34,13158423.644994012
70,2923570.5965399087
222,5108777.048454104
967,13158423.64499401
1206,0.0
2,6, 1, 6, 0, 2, 0.00,60.00,Friday
34,13158423.644994012
70,2923570.5965399087
222,5108777.048454104
967,13158423.64499401
1206,0.0
2,6, 1, 6, 0, 3, 0.00,60.00,Friday
34,13158423.644994012
70,2923570.5965399087
222,5108777.048454104
967,13158423.64499401
1206,0.0
2,6, 1, 6, 0, 4, 0.00,60.00,Friday
34,13158423.644994012
70,2923570.5965399087
222,5108777.048454104
967,13158423.64499401
1206,0.0
2,6, 1, 6, 0, 5, 0.00,60.00,Friday
34,13158423.644994012
70,2923570.5965399087
222,5108777.048454104
967,13158423.64499401
1206,0.0
2,6, 1, 6, 0, 6, 0.00,60.00,Friday
34,13970526.588477325
70,3735673.540023218
222,5108777.048454104
967,13970526.588477325
1206,0.0
2,6, 1, 6, 0, 7, 0.00,60.00,Friday
34,37175361.922962199
70,2901503.2420463429
222,5985552.087175781
967,37175361.922962199
1206,11150406.828431337
2,6, 1, 6, 0, 8, 0.00,60.00,Friday
34,41922603.08086038
70,5157606.428265599
222,5985552.087175781
967,41922603.08086038
1206,17831498.20577675
2,6, 1, 6, 0, 9, 0.00,60.00,Friday
34,42018619.98200602
70,10052776.939512607
222,11971104.174351562
967,42018619.98200602
1206,0.0
2,6, 1, 6, 0,10, 0.00,60.00,Friday
34,36854073.99665963
70,9887930.396311228
222,11971104.174351562
967,36854073.99665962
1206,0.0
2,6, 1, 6, 0,11, 0.00,60.00,Friday
34,34544750.41091594
70,9790823.160949385
222,11971104.174351562
967,34544750.410915929
1206,0.0
2,6, 1, 6, 0,12, 0.00,60.00,Friday
34,34165703.42365071
70,9768533.259323525
222,11971104.174351562
967,34165703.42365072
1206,0.0
2,6, 1, 6, 0,13, 0.00,60.00,Friday
34,37398569.34847872
70,8962681.569077904
222,11252837.923890466
967,37398569.34847873
1206,0.0
2,6, 1, 6, 0,14, 0.00,60.00,Friday
34,35072055.28039804
70,10620196.290332858
222,11971104.174351562
967,35072055.28039804
1206,0.0
2,6, 1, 6, 0,15, 0.00,60.00,Friday
34,35579805.89937864
70,11246692.23702144
222,11971104.174351562
967,35579805.899378638
1206,0.0
2,6, 1, 6, 0,16, 0.00,60.00,Friday
34,35338769.961845818
70,11284030.313664463
222,11971104.174351562
967,35338769.961845818
1206,0.0
2,6, 1, 6, 0,17, 0.00,60.00,Friday
34,37016495.40024598
70,11353708.338442214
222,11971104.174351562
967,37016495.40024597
1206,0.0
2,6, 1, 6, 0,18, 0.00,60.00,Friday
34,36302837.108914379
70,7695291.207166387
222,5985552.087175781
967,36302837.108914379
1206,0.0
2,6, 1, 6, 0,19, 0.00,60.00,Friday
34,30994740.931685557
70,5298397.224606365
222,2394220.834870312
967,30994740.93168556
1206,0.0
2,6, 1, 6, 0,20, 0.00,60.00,Friday
34,13931418.059538957
70,5298397.224606365
222,2394220.834870312
967,13931418.059538952
1206,0.0
2,6, 1, 6, 0,21, 0.00,60.00,Friday
34,12669894.910823152
70,4036874.0758905645
222,2394220.834870312
967,12669894.910823152
1206,0.0
2,6, 1, 6, 0,22, 0.00,60.00,Friday
34,12669894.910823152
70,4036874.0758905645
222,2394220.834870312
967,12669894.910823152
1206,0.0
2,6, 1, 6, 0,23, 0.00,60.00,Friday
34,11534524.076916654
70,2901503.2420463429
222,2394220.834870312
967,11534524.076916654
1206,0.0
2,6, 1, 6, 0,24, 0.00,60.00,Friday
34,11205881.415921549
70,2923570.5965399087
222,2043510.819381642
967,11205881.415921549
1206,0.0
2,7, 1, 7, 0, 1, 0.00,60.00,Saturday
34,10093157.415921549
70,2923570.5965399087
222,2043510.819381642
967,10093157.415921549
1206,0.0
2,7, 1, 7, 0, 2, 0.00,60.00,Saturday
34,10093157.415921549
70,2923570.5965399087
222,2043510.819381642
967,10093157.415921549
1206,0.0
2,7, 1, 7, 0, 3, 0.00,60.00,Saturday
34,10093157.415921549
70,2923570.5965399087
222,2043510.819381642
967,10093157.415921549
1206,0.0
2,7, 1, 7, 0, 4, 0.00,60.00,Saturday
34,10093157.415921549
70,2923570.5965399087
222,2043510.819381642
967,10093157.415921549
1206,0.0
2,7, 1, 7, 0, 5, 0.00,60.00,Saturday
34,10093157.415921549
70,2923570.5965399087
222,2043510.819381642
967,10093157.415921549
1206,0.0
2,7, 1, 7, 0, 6, 0.00,60.00,Saturday
34,10093157.415921549
70,2923570.5965399087
222,2043510.819381642
967,10093157.415921549
1206,0.0
2,7, 1, 7, 0, 7, 0.00,60.00,Saturday
34,11205881.415921549
70,2923570.5965399087
222,2043510.819381642
967,11205881.415921549
1206,0.0
2,7, 1, 7, 0, 8, 0.00,60.00,Saturday
34,8982980.797430411
70,2889469.97804877
222,2043510.819381642
967,8982980.797430411
1206,0.0
2,7, 1, 7, 0, 9, 0.00,60.00,Saturday
34,7593911.490233097
70,2594800.670851457
222,2043510.819381642
967,7593911.490233097
1206,0.0
2,7, 1, 7, 0,10, 0.00,60.00,Saturday
34,7550374.96634608
70,2551264.1469644389
222,2043510.819381642
967,7550374.96634608
1206,0.0
2,7, 1, 7, 0,11, 0.00,60.00,Saturday
34,7535630.272393694
70,2536519.4530120536
222,2043510.819381642
967,7535630.272393693
1206,0.0
2,7, 1, 7, 0,12, 0.00,60.00,Saturday
34,7512562.68520524
70,2513451.8658235997
222,2043510.819381642
967,7512562.685205239
1206,0.0
2,7, 1, 7, 0,13, 0.00,60.00,Saturday
34,7501010.714685909
70,2501899.8953042689
222,2043510.819381642
967,7501010.714685908
1206,0.0
2,7, 1, 7, 0,14, 0.00,60.00,Saturday
34,7540114.626740055
70,2541003.807358413
222,2043510.819381642
967,7540114.626740055
1206,0.0
2,7, 1, 7, 0,15, 0.00,60.00,Saturday
34,7554932.61940904
70,2555821.800027399
222,2043510.819381642
967,7554932.61940904
1206,0.0
2,7, 1, 7, 0,16, 0.00,60.00,Saturday
34,7614554.4287684219
70,2615443.6093867809
222,2043510.819381642
967,7614554.428768421
1206,0.0
2,7, 1, 7, 0,17, 0.00,60.00,Saturday
34,9540563.39635971
70,2899852.5769780685
222,2043510.819381642
967,9540563.39635971
1206,0.0
2,7, 1, 7, 0,18, 0.00,60.00,Saturday
34,11205881.415921549
70,2923570.5965399087
222,2043510.819381642
967,11205881.415921549
1206,0.0
2,7, 1, 7, 0,19, 0.00,60.00,Saturday
34,11205881.415921549
70,2923570.5965399087
222,2043510.819381642
967,11205881.415921549
1206,0.0
2,7, 1, 7, 0,20, 0.00,60.00,Saturday
34,11205881.415921549
70,2923570.5965399087
222,2043510.819381642
967,11205881.415921549
1206,0.0
2,7, 1, 7, 0,21, 0.00,60.00,Saturday
34,11205881.415921549
70,2923570.5965399087
222,2043510.819381642
967,11205881.415921549
1206,0.0
2,7, 1, 7, 0,22, 0.00,60.00,Saturday
34,11205881.415921549
70,2923570.5965399087
222,2043510.819381642
967,11205881.415921549
1206,0.0
2,7, 1, 7, 0,23, 0.00,60.00,Saturday
34,11205881.415921549
70,2923570.5965399087
222,2043510.819381642
967,11205881.415921549
1206,0.0
2,7, 1, 7, 0,24, 0.00,60.00,Saturday
34,11205881.415921549
70,2923570.5965399087
222,2043510.819381642
967,11205881.415921549
1206,0.0
2,8, 1, 8, 0, 1, 0.00,60.00,Sunday
34,10093157.415921549
70,2923570.5965399087
222,2043510.819381642
967,10093157.415921549
1206,0.0
2,8, 1, 8, 0, 2, 0.00,60.00,Sunday
34,10093157.415921549
70,2923570.5965399087
222,2043510.819381642
967,10093157.415921549
1206,0.0
2,8, 1, 8, 0, 3, 0.00,60.00,Sunday
34,10093157.415921549
70,2923570.5965399087
222,2043510.819381642
967,10093157.415921549
1206,0.0
2,8, 1, 8, 0, 4, 0.00,60.00,Sunday
34,10093157.415921549
70,2923570.5965399087
222,2043510.819381642
967,10093157.415921549
1206,0.0
2,8, 1, 8, 0, 5, 0.00,60.00,Sunday
34,10093157.415921549
70,2923570.5965399087
222,2043510.819381642
967,10093157.415921549
1206,0.0
2,8, 1, 8, 0, 6, 0.00,60.00,Sunday
34,10093157.415921549
70,2923570.5965399087
222,2043510.819381642
967,10093157.415921549
1206,0.0
2,8, 1, 8, 0, 7, 0.00,60.00,Sunday
34,11205881.415921549
70,2923570.5965399087
222,2043510.819381642
967,11205881.415921549
1206,0.0
2,8, 1, 8, 0, 8, 0.00,60.00,Sunday
34,9017081.415921549
70,2923570.5965399087
222,2043510.819381642
967,9017081.415921549
1206,0.0
2,8, 1, 8, 0, 9, 0.00,60.00,Sunday
34,7799501.337099731
70,2800390.517718092
222,2043510.819381642
967,7799501.337099731
1206,0.0
2,8, 1, 8, 0,10, 0.00,60.00,Sunday
34,7572659.090091329
70,2573548.270709689
222,2043510.819381642
967,7572659.090091329
1206,0.0
2,8, 1, 8, 0,11, 0.00,60.00,Sunday
34,7712274.00868213
70,2713163.1893004898
222,2043510.819381642
967,7712274.00868213
1206,0.0
2,8, 1, 8, 0,12, 0.00,60.00,Sunday
34,7803787.351499407
70,2804676.532117766
222,2043510.819381642
967,7803787.351499405
1206,0.0
2,8, 1, 8, 0,13, 0.00,60.00,Sunday
34,7814360.891551844
70,2815250.0721702028
222,2043510.819381642
967,7814360.891551844
1206,0.0
2,8, 1, 8, 0,14, 0.00,60.00,Sunday
34,7877828.63862448
70,2878717.8192428399
222,2043510.819381642
967,7877828.63862448
1206,0.0
2,8, 1, 8, 0,15, 0.00,60.00,Sunday
34,7922681.415921549
70,2923570.5965399087
222,2043510.819381642
967,7922681.415921549
1206,0.0
2,8, 1, 8, 0,16, 0.00,60.00,Sunday
34,7922681.415921549
70,2923570.5965399087
222,2043510.819381642
967,7922681.415921549
1206,0.0
2,8, 1, 8, 0,17, 0.00,60.00,Sunday
34,9564281.415921549
70,2923570.5965399087
222,2043510.819381642
967,9564281.415921549
1206,0.0
2,8, 1, 8, 0,18, 0.00,60.00,Sunday
34,11205881.415921549
70,2923570.5965399087
222,2043510.819381642
967,11205881.415921549
1206,0.0
2,8, 1, 8, 0,19, 0.00,60.00,Sunday
34,11205881.415921549
70,2923570.5965399087
222,2043510.819381642
967,11205881.415921549
1206,0.0
2,8, 1, 8, 0,20, 0.00,60.00,Sunday
34,11205881.415921549
70,2923570.5965399087
222,2043510.819381642
967,11205881.415921549
1206,0.0
2,8, 1, 8, 0,21, 0.00,60.00,Sunday
34,11205881.415921549
70,2923570.5965399087
222,2043510.819381642
967,11205881.415921549
1206,0.0
2,8, 1, 8, 0,22, 0.00,60.00,Sunday
34,11205881.415921549
70,2923570.5965399087
222,2043510.819381642
967,11205881.415921549
1206,0.0
2,8, 1, 8, 0,23, 0.00,60.00,Sunday
34,11205881.415921549
70,2923570.5965399087
222,2043510.819381642
967,11205881.415921549
1206,0.0
2,8, 1, 8, 0,24, 0.00,60.00,Sunday
34,11205881.415921549
70,2923570.5965399087
222,2043510.819381642
967,11205881.415921549
1206,0.0
2,9, 1, 9, 0, 1, 0.00,60.00,Monday
34,13158423.644994012
70,2923570.5965399087
222,5108777.048454104
967,13158423.64499401
1206,0.0
2,9, 1, 9, 0, 2, 0.00,60.00,Monday
34,13158423.644994012
70,2923570.5965399087
222,5108777.048454104
967,13158423.64499401
1206,0.0
2,9, 1, 9, 0, 3, 0.00,60.00,Monday
34,13158423.644994012
70,2923570.5965399087
222,5108777.048454104
967,13158423.64499401
1206,0.0
2,9, 1, 9, 0, 4, 0.00,60.00,Monday
34,13158423.644994012
70,2923570.5965399087
222,5108777.048454104
967,13158423.64499401
1206,0.0
2,9, 1, 9, 0, 5, 0.00,60.00,Monday
34,13158423.644994012
70,2923570.5965399087
222,5108777.048454104
967,13158423.64499401
1206,0.0
2,9, 1, 9, 0, 6, 0.00,60.00,Monday
34,13970526.588477325
70,3735673.540023218
222,5108777.048454104
967,13970526.588477325
1206,0.0
2,9, 1, 9, 0, 7, 0.00,60.00,Monday
34,39165038.89915933
70,2901503.2420463429
222,5985552.087175781
967,39165038.89915934
1206,6684718.405063072
2,9, 1, 9, 0, 8, 0.00,60.00,Monday
34,36831474.03700468
70,5298397.224606365
222,5985552.087175781
967,36831474.03700468
1206,80848.47186025173
2,9, 1, 9, 0, 9, 0.00,60.00,Monday
34,38163612.496725168
70,10783228.471633543
222,11971104.174351562
967,38163612.49672516
1206,0.0
2,9, 1, 9, 0,10, 0.00,60.00,Monday
34,34111645.05746537
70,10018829.59377282
222,11971104.174351562
967,34111645.05746537
1206,0.0
2,9, 1, 9, 0,11, 0.00,60.00,Monday
34,32132407.01889304
70,10050096.701290625
222,11971104.174351562
967,32132407.01889304
1206,0.0
2,9, 1, 9, 0,12, 0.00,60.00,Monday
34,30694691.043561538
70,9808379.365136072
222,11971104.174351562
967,30694691.043561538
1206,0.0
2,9, 1, 9, 0,13, 0.00,60.00,Monday
34,30585985.08989393
70,8860039.925436715
222,11252837.923890466
967,30585985.08989393
1206,0.0
2,9, 1, 9, 0,14, 0.00,60.00,Monday
34,29556773.488613234
70,9886038.342590515
222,11971104.174351562
967,29556773.48861323
1206,0.0
2,9, 1, 9, 0,15, 0.00,60.00,Monday
34,30496792.54763721
70,10826057.40161449
222,11971104.174351562
967,30496792.547637207
1206,0.0
2,9, 1, 9, 0,16, 0.00,60.00,Monday
34,31026387.954651365
70,11353708.338442214
222,11971104.174351562
967,31026387.95465137
1206,0.0
2,9, 1, 9, 0,17, 0.00,60.00,Monday
34,32753890.195046259
70,11353708.338442214
222,11971104.174351562
967,32753890.195046259
1206,0.0
2,9, 1, 9, 0,18, 0.00,60.00,Monday
34,30753059.718489268
70,7695291.207166387
222,5985552.087175781
967,30753059.718489268
1206,0.0
2,9, 1, 9, 0,19, 0.00,60.00,Monday
34,27490381.064145656
70,5298397.224606365
222,2394220.834870312
967,27490381.064145663
1206,0.0
2,9, 1, 9, 0,20, 0.00,60.00,Monday
34,13931418.059538957
70,5298397.224606365
222,2394220.834870312
967,13931418.059538952
1206,0.0
2,9, 1, 9, 0,21, 0.00,60.00,Monday
34,12669894.910823152
70,4036874.0758905645
222,2394220.834870312
967,12669894.910823152
1206,0.0
2,9, 1, 9, 0,22, 0.00,60.00,Monday
34,12669894.910823152
70,4036874.0758905645
222,2394220.834870312
967,12669894.910823152
1206,0.0
2,9, 1, 9, 0,23, 0.00,60.00,Monday
34,11534524.076916654
70,2901503.2420463429
222,2394220.834870312
967,11534524.076916654
1206,0.0
2,9, 1, 9, 0,24, 0.00,60.00,Monday
34,11205881.415921549
70,2923570.5965399087
222,2043510.819381642
967,11205881.415921549
1206,0.0
2,10, 1,10, 0, 1, 0.00,60.00,Tuesday
34,13158423.644994012
70,2923570.5965399087
222,5108777.048454104
967,13158423.64499401
1206,0.0
2,10, 1,10, 0, 2, 0.00,60.00,Tuesday